64
Lattice="7.527393 0.0 0.0 0.0 7.527393 0.0 0.0 0.0 22.527393" Properties=species:S:1:pos:R:3:force:R:3 energy=-434.51657821 config_type=Amorphous_Surfaces kpoints="5 5 1" kpoints_density="5.99123926 5.99123926 3.58602245" virial="60.5510652 -14.98321377 -6.36529104 -14.98321377 12.32518258 14.25315907 -6.36529104 14.25315907 0.52269584" cutoff=-1.0 nneightol=1.2 pbc="T T T"
C        3.09119168       7.13772997      22.18698156      -1.10559162      -1.28979813       0.93893453
C        4.20277686       7.12458715       0.42187049       2.88140439      -1.06144388       0.35712459
C        2.27041980       0.60970378      21.81917682      -1.16836021       1.21095985      -0.47365309
C        6.31086844       5.80738370       2.34356975       2.10099805       0.37069843       0.32237856
C        5.79374406       1.64179969      20.64401284      -1.76640500      -0.41126829       2.21065821
C        5.27624332       0.70329186       0.39067005       0.76638844       0.82382489      -0.04202401
C        2.21428051       3.35994219       1.63884531       0.60904400      -2.54463040       0.30084942
C        4.28141554       7.17360553      20.14969425       0.10693600       0.40604946      -0.45103054
C        4.32159676       4.45785763       2.69513224      -0.28504911      -1.58440460      -3.11208216
C        5.11879284       4.87320412      19.92592966       0.62631880       0.93736835      -0.61108214
C        6.41444536       2.88576913      19.31787026       0.47815090      -2.04824773       0.16182361
C        2.32202761       5.77116941       2.57992716      -0.38682204      -1.60259337      -2.75659180
C        6.85125245       1.70973441      19.70619747       0.12960451       1.75166056      -1.71772894
C        1.67029840       0.77587851      20.29139155       1.38399081      -2.24348043       2.45284283
C        2.69202156       1.72182340       0.05073169       0.32174954       0.31916935      -2.21387064
C        0.84403152       6.00757472      19.79626198      -3.07597678      -1.35396832      -1.48438309
C        7.49615432       5.10916531       2.53273227      -0.32057059       0.68682129       0.62325762
C        6.81792868       1.02136937       1.01535466      -0.20736129      -3.64822951       2.67381919
C        3.33833858       2.81212864      20.30788160      -1.19628001      -0.80104276      -1.10190050
C        4.88247787       5.83391776       0.51936905      -1.66334864       1.05234261      -1.16925634
C        6.65799416       0.02831805       3.61476801       1.90244578      -1.14317886      -2.52683467
C        6.34916781       4.21256247      19.58948304      -0.19638001      -0.04058083       0.55281598
C        1.16872562       1.35622545       2.70274650      -1.85467539       1.04182121      -0.69838070
C        7.37302122       0.59598887       2.59984137       2.09003799       2.89472182      -0.75736869
C        4.41425144       3.27682472      22.34505628       3.18933477      -0.47624766       0.10054143
C        2.29184276       5.90657968      20.93587774       2.83284385       2.19795835      -1.37153456
C        0.21014223       3.22453945      22.41574724       2.76454368       1.81386828      -1.70031132
C        2.81575684       7.00547368      19.85237772      -0.41683875       0.33490571       0.90218764
C        2.09722955       5.91767506      19.17851581       1.41522295      -0.87997826      -0.28691880
C        0.88585372       6.00921569       0.47284998       2.46320873      -2.55260322       1.40159332
C        3.76403523       4.17835800      19.67797064       3.05587475      -3.01581457       0.57215613
C        7.14512940       5.61799449      22.28961637       1.07368673       0.74078354      -1.13582977
C        6.24850398       6.14776488       0.87264362      -1.51161689      -0.97453102      -1.25343759
C        2.97118998       4.49657854       2.26857606      -0.57934116       1.88000495       2.64976659
C        1.56535901       3.56390443       0.14331927      -1.88858719       1.64174595       2.12450220
C        3.15898338       5.24114309      21.82217296      -1.09884033       1.92055620       1.34209662
C        2.99998226       6.95579289       2.89217935      -0.63884644       0.27929772      -0.68114980
C        4.68421386       2.45084389       3.19386620       0.74429107      -1.88211293       0.05958658
C        1.36921020       3.61349490      19.64062022       2.18107881      -0.56148635      -0.72549161
C        6.73472841       2.38524266       0.57411061       1.21098360       1.05353800      -0.89720685
C        4.25466318       4.61344884      22.47172781       2.89388854       3.34250488       0.33310163
C        1.08654907       2.83531301       2.43264306       0.23710412      -0.50827212       1.84517758
C        6.73857491       6.74879711      21.23420800       0.07101194       0.82815466       1.19859984
C        7.45047057       4.44707087      21.54231516      -0.00452361      -3.40926520       0.45967854
C        5.32326695       0.13891051       3.66385520      -4.13147726       0.09947675       0.55517067
C        4.31333921       6.64753861       3.28293951       2.57280012       3.60658288       1.24837170
C        6.46667042       3.11684504       1.89462133      -2.59505068       0.85703852      -0.07501037
C        5.05635312       5.56597268       2.92002321      -2.44068210      -0.35864202       0.89602596
C        5.29844913       6.19173991      20.54354066      -0.03555258      -0.51094116      -1.38942186
C        4.78597669       0.85479569      20.24807138      -0.35786212       1.71050166      -0.44520697
C        2.79000563       1.90485196       1.42120817       1.34682894      -0.90554557       0.49152979
C        5.57413237       2.12269472      22.13645262      -1.71944138       0.25460917       1.78681687
C        1.90126140       2.29961103      19.84480851       0.65513585       1.12088000       0.56581156
C        6.54504563       7.42544199       0.09357879      -2.89222078       2.53334568       0.41180213
C        0.38178937       7.20556684      20.28751684      -0.72272660       0.59572556       0.18998150
C        4.81097516       1.38800610       3.83157164      -0.30975905       1.73615320       0.32588895
C        0.28884865       4.58683198      20.04509957      -2.75557887       0.39704459       0.72113664
C        2.53283225       4.56690697      19.34907070      -1.41994884       0.00764614      -2.07563286
C        5.06981210       3.35013400       2.23043718      -0.69206603      -1.66537746       1.06943139
C        1.86502453       5.03800133      22.31385584      -2.05700913      -0.25430878      -0.57192285
C        2.46065961       0.79362057       2.44688037      -0.66823080       1.57355972       0.27642484
C        3.33913648       2.72646691      21.67468612      -1.44555107      -2.15110402       0.47564544
C        1.02759453       5.82583334       1.90081637       0.01765137       0.30820551      -0.93164260
C        7.50018900       3.71088431       2.61486714       1.48601332      -2.45042800       0.05937503
