64
Lattice="7.527393 0.0 0.0 0.0 7.527393 0.0 0.0 0.0 22.527393" Properties=species:S:1:pos:R:3:force:R:3 energy=-425.37753571 config_type=Amorphous_Surfaces kpoints="5 5 1" kpoints_density="5.99123926 5.99123926 3.58602245" virial="-24.76630904 2.31629466 9.93386434 2.31629466 -40.47141305 -5.59921645 9.93386434 -5.59921645 -4.74516788" cutoff=-1.0 nneightol=1.2 pbc="T T T"
C        3.68108336       0.40882024       2.88670519       3.12244892      -3.22236765       0.52495602
C        3.89259558       6.69960559       3.54563144      -0.56718462       0.67710732       0.94190255
C        1.31870892       1.15050933       2.48109948      -1.99583336      -3.57050257      -0.88767696
C        6.58838083       5.07429090      20.65845289       0.85071029       0.51717940       2.30588999
C        5.67883841       1.95294448       1.44299216       0.42526824      -1.30720344      -0.71586610
C        4.88907939       0.32826208      19.60275168       1.48456769      -0.98515434      -0.72285169
C        2.28417235       3.67564858      19.91203025      -0.97676090      -3.49683498       3.08478013
C        4.10553047       0.01483649       1.36883198      -2.86468190      -4.58709461       1.40656015
C        4.29915760       4.68726246      19.72025456       0.96394185       3.64642497       2.81743955
C        5.18780398       4.90176305       0.79418071      -0.12560151       3.58093615      -2.30447458
C        6.23065654       3.22946236      21.94537527       1.60385067      -0.05194463      -0.68258326
C        2.57171124       6.33178706      20.30639480       0.15045140       0.12444600       0.30256771
C        6.71691860       2.13404603       0.33266201      -0.78650835      -0.18823373      -0.58860177
C        1.30374447       0.46821890       0.96647021       2.66920466       2.08290073       2.59969517
C        2.66602194       1.30218630       2.92383034      -0.05359360       4.36771028      -0.85224693
C        0.90336243       5.97647906      21.94102749      -0.77037825       1.19735696       8.04343001
C        0.35285407       5.81970604      20.70066923      -4.04435521      -1.14134463       0.92095407
C        6.13104654       0.85438169      19.68344480      -0.03909946       1.60318244      -2.52464285
C        2.87117351       2.97143839       1.05423694       1.56194925      -1.81176155       3.82120313
C        5.01057151       5.91020789       3.81584752       1.71777968       1.85219535      -0.85641856
C        6.75305761       0.79695521      21.96006313       2.69034827      -1.80892184       0.58938864
C        6.42806242       4.64038185      22.42135656      -0.54767049      -2.50759206       0.67269456
C        1.29259640       1.52272386      20.64872106      -0.71016110       0.72370408      -0.24965754
C        7.30547040       0.61739677      20.42937184       2.18969527       3.51281175       2.32425277
C        4.56789306       3.51496885       3.08287373       0.28110836      -7.58122017      -2.14123946
C        2.15764440       5.64951921       1.78585908       3.08140283      -0.92276620      -1.32452973
C        0.44909932       3.45788863       2.94482587       0.40422978      -0.64506878       1.52727914
C        2.65043271       7.00645977       0.87536944      -3.20062207       0.15588416      -0.00246246
C        2.41718139       6.14131391      22.10637855      -2.16354470      -1.11125154       0.15549775
C        0.08638436       0.81217560       3.47825201       3.01907779       6.50963618      -2.17219666
C        4.07491656       4.24767023       0.22338163      -1.10660492      -3.14629058      -0.23596030
C        7.00639955       5.62138935       2.30031715       0.35837964       1.51031701      -1.87663820
C        6.46317771       6.20047922       3.47854486      -1.68684854       0.18652267       2.74120786
C        2.93224325       4.91330254      19.92545658       2.49471196       1.89308636      -1.19771813
C        1.19984386       3.90568571       4.01620615       2.90667720       4.67061820      -0.34543091
C        2.83701420       5.62958668       3.26023190       2.36571282      -0.45768902      -1.92802745
C        3.58411549       0.15532023      20.27704160       0.51027682      -6.05148073      -1.93560986
C        4.77991714       3.10839177      21.66738724      -1.32065700      -0.68077299      -0.48351539
C        1.18618917       3.48971445      22.37044465       0.38995431      -0.11393283      -0.29451224
C        7.06892960       2.31283666       3.27309504      -0.13838363      -0.88374059      -0.51033486
C        4.43168488       4.74269418       3.39562153      -2.67365758      -0.74386702       1.00262940
C        1.01088372       3.19528800      20.86473623       1.01629978      -1.90103437      -2.34559414
C        6.59908479       6.66720769       1.37989293      -0.45273946      -0.42220044      -1.20257127
C        0.42724730       4.64374660       1.84893578       0.39591625       1.48249022       4.74663094
C        5.39299319       0.42907646      21.78635441      -2.50540313       1.72608430       1.92081558
C        4.72244549       6.89982672      21.10911339       1.29267811      -0.66922106      -2.75356435
C        6.16686941       3.01505210      19.20349869      -0.24687422      -1.68327287       3.80015278
C        5.29428648       5.70888776      20.30006460      -2.17865541      -1.45249108       0.49160380
C        5.13420142       6.35498649       1.07241654       1.92849433       0.56731843       1.61512322
C        4.62728419       1.14690371       0.79098182       1.33532744       3.33366285      -2.30300951
C        3.31240671       2.57750733      20.03518751      -2.72423877       3.75555619      -1.37906329
C        5.71586566       2.50856394       2.81409941      -0.94359983       0.31098511      -2.01878236
C        1.84086912       2.28841780       0.48683949      -2.12458938       0.52675378      -0.60660299
C        7.26842810       7.20590557       3.95641845      -1.88892505      -1.23465176       0.13340593
C        0.10584267       7.23625602       0.33964550      -0.63260569       1.01837427       0.04482010
C        4.37905335       1.58948431      21.87815353       0.26887274       0.73466374       2.28725678
C        0.30274422       4.59364427       0.47751315       0.38375475      -0.68694133      -6.53715919
C        2.65340603       4.76136964       0.43390012       2.27367997       0.43442956      -0.68369508
C        4.58084017       3.34518850      20.11570041       2.20900078      -2.85028773      -1.46893525
C        1.90725320       5.06485907       4.03922915      -3.85263231      -5.35910066       1.84567705
C        2.90153149       1.33067748      20.68312039      -1.59557168       2.37931015       0.17289514
C        3.30810857       2.47226685       2.35190488       0.84361061       4.21221448       0.58452760
C        1.21601270       6.29558783      19.89281439       1.85301373       2.76533695      -5.65764722
C        7.07777429       3.43267939      20.56458125      -4.12441408       1.21703776      -1.63541697
