216
Lattice="11.29109 0.0 0.0 0.0 11.29109 0.0 0.0 0.0 31.29109" Properties=species:S:1:pos:R:3:force:R:3 energy=-1508.88974706 config_type=Amorphous_Surfaces kpoints="3 3 1" kpoints_density="5.39211557 5.39211557 4.98107131" virial="-13.61696475 48.67626454 7.94069381 48.67626454 -3.57405396 4.29124095 7.94069381 4.29124095 38.6412886" cutoff=-1.0 nneightol=1.2 pbc="T T T"
C        2.58721778       2.09260029      28.98140077       1.51777716       1.57733192       0.62804118
C        4.84654231      10.46070937       0.93607296      -1.11378395      -0.01348016       0.65494798
C        6.53461672       7.31740541      26.14404990      -3.29369983      -1.41753717      -1.25238285
C        4.26808848       3.92456835      26.66748725      -0.01060526       1.11885211       1.93710437
C        1.32194953       3.26219914       5.57241118       1.98247438       1.51518869      -0.47740860
C        0.03289095       3.90879470       3.44427286      -1.81391126       0.13649801       0.15683753
C        9.28681991       4.87763797      26.16636044      -2.26653359       2.62873974      -1.31521855
C        2.04686009       4.82602640      26.30081826      -4.80034885      -0.40882640      -3.35982408
C        1.67382505       2.13520157       1.68389872      -1.31242199       0.48754643      -2.00866926
C        6.86484723       4.14938525      29.65077977       0.60635208       3.21609369       1.23457051
C        3.39060142       4.19445928      29.88793494      -1.41317767       2.48889447      -1.66124199
C        8.93973180       1.18861304       4.19090956       1.34292181      -0.91812476       3.00800783
C       10.06443727       2.65526918       5.48586003      -1.04708153       0.85855617      -0.78901013
C        8.03366699       7.76419384       2.46223329       1.86804490       2.36084131       1.78968904
C        7.00776984       7.80567730      30.57953061      -2.13942997       1.81395873       2.04589637
C        9.25864864       9.42838759      27.81558863      -2.65475011       1.93436823       0.72973519
C        8.65396560       9.37939555      31.28257882       3.23678265      -0.98488066       0.67957815
C       10.04360521       0.00179528      30.27181403       2.42104878       3.28396114      -1.78235320
C        8.85764557       0.10089718      29.38768429       1.51575400      -1.54313810      -2.20466953
C        8.25308674       0.93122136      30.28990028       0.93591519       0.80679304       1.37007082
C        9.42332918       3.57219602      26.96300030      -0.57883887      -0.90164852      -0.12403899
C        3.45473481       8.47873918      31.25638818       0.08902089       2.11056291       1.01145743
C        7.73628226       6.69482599      25.94566439       1.97680281       0.54805704       0.33328251
C        9.93930941       6.25145876      25.75744848       4.72460601      -4.88615997       0.46136034
C        3.81803692      10.56175333       4.83437953      -3.51930022       1.57003315       1.05722976
C        5.42595588       3.92315697      29.47630065       0.48373123       0.88536029       1.07397787
C        3.97343619       0.86093432       2.86560673      -1.38568897       0.15278869      -2.22599608
C        4.94451510      11.12093327       2.32423958       3.60005745      -0.66782849      -0.57883958
C        0.45905056       0.07950056      25.75604038      -0.04282494      -1.52546240      -2.12529369
C        7.53454436       5.70098425      29.54526622      -4.26145627       0.35202938      -3.61859641
C        2.18240962       4.92673163       4.18487038       0.68043444      -0.24395983       1.02074219
C        7.33328068       6.91216819       1.77157635      -1.05748335      -0.09407889       0.93395189
C        8.87183847       0.57646660       1.92621692      -0.62773350      -2.68348487       1.03043998
C        7.39056038       0.32675285      26.02864836      -3.31494389      -3.05400701      -0.46682647
C        0.23191899       2.90497164      31.00965794      -0.56440630       5.01788409       0.52030556
C        1.59829895       1.33705700      28.00612008      -0.45323966       1.29169696       1.04049071
C        3.14124898       3.41102700      31.06178889       2.57734426       0.99567770       2.84189898
C        2.63597271       2.09184379      30.67246515      -1.84713426      -0.20963289      -1.88345357
C        0.73712752       3.52417501       2.14099896       2.00772751      -1.20631498       0.91441135
C        3.71141516       6.98071639       1.81541517      -0.80714073      -1.32081344       0.19232554
C        5.95979862       6.73888383       4.26403683      -1.67032005       1.30565994       1.35460478
C       11.25515046       8.71400033       5.78631707       0.57885620       0.43511749       0.80291101
C        6.62270980       5.92840939       1.35365255      -1.63307388      -1.64229050      -0.49274867
C        2.42559712      11.02480093      30.85057403       1.51802653       0.59765507      -0.89393775
C        5.30492669       5.06134400       2.20351856       3.24857410      -1.63125177      -1.09761918
C        3.86409328       1.30488869      26.29077382      -0.44540699       1.40963794      -0.82011811
C        0.63722396       0.77216377       3.50466466      -0.77035113       2.04501519      -2.75481864
C        6.08248760       0.77101208      25.98455921      -0.84804132       0.25620740      -1.16745035
C        4.93829370       1.81611537       3.38632176      -3.88421457       1.72392145       3.10614335
C        7.01278309       3.00662532      26.50377227      -1.12725006       0.74267648      -0.38066127
C        4.20987162       1.56040606      29.12280521      -0.61495010       0.82624118      -2.73459147
C        7.57843282      10.06623256       0.67391621      -2.70485533       3.41608499      -2.17034610
C        0.77835129       6.98245522      29.20337977      -1.44023192      -0.04279662      -0.96572437
C        0.14239194       9.71092454      30.35051113      -1.71264374      -0.86398195      -1.03275339
C        7.50810062       3.87959594       2.10269867      -1.24993091       0.03403046       2.83405885
C        4.92900114       9.74655922       3.04934801       0.79659019      -1.03476366      -1.04340390
C       10.37883767       6.80492541       2.24485409      -1.04882772      -0.14686259      -0.22845122
C        5.88003836       8.46275099      31.23132402       2.31196067      -1.61546907      -2.80711466
C        1.45070183       5.78479801      28.57380304      -0.86941983      -1.62342682      -0.46453354
C        2.98889831       7.95906676       2.78672189       1.10908700      -1.16509003      -3.66167604
C        9.21684902       9.36783348       5.08605377      -0.57301226       0.86892580       1.13842959
C       10.17423183       4.85594779       0.72989597       1.57615515      -0.98716092      -1.39146654
C        9.14209071       8.05519910       5.54318530      -1.66166566      -3.49706489       0.62369438
C       11.05623533       8.74457660      25.62017447       2.35429611       0.66726402      -0.01986594
C       10.76892225      11.18654580       3.66922450       1.31568247      -2.00148620       1.59833231
C        4.71793679       0.27079421       0.02306153       1.33333596       0.32452502      -0.81022844
C        9.30823910       4.75589744       4.52997981      -3.72696327       0.45251395      -0.27378608
C        6.09356416       3.40276192       4.46041972       0.60679334      -0.35855530      -1.46018238
C        5.33467871       6.36479872      26.09476643      -1.52993418       3.88791473       0.16256069
C        6.07186269       9.20157218       5.13887313      -2.32883242       0.61774586      -0.45170269
C        6.03455692       0.54030124      30.52076595      -0.58723312      -1.72718110       2.40249307
C       11.00276073       0.31243575      27.02749124      -1.42384901       1.84753263      -0.21271703
C        1.26576506       8.14827155      28.54266840       1.79678613       0.90094145      -0.47088506
C        2.25808251       7.63925793       5.24717159      -0.24938355      -0.62088935      -0.00714121
C        1.40871026       0.93221497      25.29133640       0.74304409      -1.24534420       1.80127156
C        7.52222578      10.19078457      26.26054663       4.88905508       2.35888486      -1.78974567
C        4.92307332       9.85951528       4.54321594       3.83967740      -2.38836039       1.00881866
C        2.49545509       9.57345552       0.09196451      -2.55206640       2.51931498       1.05805729
C        8.89410450       3.31675769       4.99268116       1.64440301       0.38095675      -0.43162459
C        9.79057189       4.45369141       3.09434460      -0.14511292       0.30890889       0.57594812
C        3.22045598       1.65989185       1.58467467       0.28041030       1.59284990       0.47161258
C       11.09209583       5.53908131      30.93074181       1.42491009      -0.56013370      -1.96107236
C        9.84133663       9.09677957       2.95356599      -0.06261623      -0.80989236       0.72150146
C        0.81079059       4.38332534      30.54811436      -0.74973041      -0.90209950      -0.44998820
C        3.49821679      10.56849411      28.22863102       0.65460214      -1.87379870       3.07709266
C        0.89031374       6.75259121      30.80197897       0.37144770      -0.45327581      -2.02325048
C       11.20440830       3.60393527       5.11199408       1.20830352      -0.42779216       1.77294828
C        8.08033307       7.20210079       5.22583107       1.26324368       0.95133663      -1.09613025
C        4.15499692       7.23014786      26.27034074       1.50171152      -1.78369183       1.05553615
C        6.45923740       4.47218622       3.34874116       0.40770349       2.23920111       0.48999139
C        9.94625343       5.47629156       1.96958637      -0.16406035       1.11572681       3.39429816
C        9.48163637       7.81976858       2.56345997      -0.29817188       0.62027203       0.86915755
C        9.08589496       9.99951351      26.33304808      -1.57802449      -1.60097712       2.06408743
C        5.55373715       7.01278309      28.81095821      -1.75870501       3.76856328       0.72861273
C       10.64431378       6.16721594       5.96852509       0.53930389      -1.65018892      -1.18813298
C        8.64325036       4.78884484       0.11705997       0.87171638       0.38654679      -0.02748363
C        6.87283003       5.65228578       4.18217934       1.68839132      -1.35722130      -0.91932843
C        1.23000618       0.08919961      28.83373812       1.90880324      -0.42924827      -0.99608485
C        8.82414491       3.22488209       2.61218019       1.89900038       3.78912405      -0.00147920
C        1.34898040       4.69701440       2.90691097      -2.27513934       0.39995605       0.40756169
C        8.20429794       5.76972441       4.78641029      -4.52653633       3.41165170      -1.25454346
C        6.21882751       1.86875443       2.79701666       1.49336020      -3.43416506      -2.05497523
C        7.53547023       3.82395345      30.93164925      -0.22371933      -0.26418252      -0.86415473
C        0.89598186       9.17460905       0.34999084       0.57928155      -0.16304521      -0.03755097
C        2.24492839       2.18928590       5.12313371      -3.96654175      -3.20829387      -1.88346998
C        2.72277861       7.91675904      28.02139013       0.05028893       3.28727998      -0.33604795
C        2.30263715       6.28519654      31.12862666      -0.53538900      -2.54946264       0.39951583
C        7.45654551       4.83699005       1.01846240       3.08148012       0.90699091      -1.92785007
C        1.31305215       1.97914742       0.01786721       0.23519894      -2.58450740       2.17121684
C        5.37962854       5.12738559      26.96562876      -1.06962894      -1.31620852      -0.92527162
C        9.49440659       0.21392099      26.61141362       2.63229904      -0.66072652      -1.71744441
C        4.60740831       0.21612275      28.72155956       1.39858474       1.15742934      -0.29958723
C        0.52477599       0.06807398       1.19857391      -0.01273563       1.28926187       2.00886502
C        4.34737451       6.03759423       2.52459643       0.94958909       0.36640601       3.29243511
C        0.67767993       7.63421081      25.97870778      -2.68028663      -1.23404267      -0.81112839
C        9.72801925       2.73504073       1.58899284      -0.44684101      -5.01171916       0.04517319
C        3.42715067       9.36463810       2.58433112       3.92642188      -2.15676088      -1.33930966
C        0.31797968      11.19583836      30.01422578      -1.26295936       1.39342875       2.89211490
C        5.21737558       2.51320469      29.65162463      -0.36422569       0.24330006      -0.91641950
C        0.45880215       7.16566445       1.84445330       2.96875771       1.10919959       2.11232750
C        9.91632075       3.13231773      29.04758143       0.17209618       2.74213135      -3.40643124
C        5.95422082      11.10782432      29.22675421      -0.98972398      -1.83497800      -2.91950894
C        8.30300465       2.57343136      26.41847276       1.80056867       0.61510142       0.82266801
C        1.98902712       6.33163679       4.06299158       1.10231607      -0.78379326       0.72322933
C        7.33770679       0.13881266      31.08553883      -0.32374868      -0.58903580       3.91325134
C        6.88550992       4.49649594      27.01441157      -0.78598924      -0.56392653       0.04481872
C        2.43145719       5.59200265      27.47320153      -0.48636874       3.65520285       1.56431205
C        3.80525541       3.16770401       1.13977795       2.73887315       0.02501940      -1.16702462
C        0.68389003       7.69556659       0.51076446      -0.89283466       2.56876536       1.16186597
C        1.01250591       5.11415243      25.49522915       0.02567026       1.30969111       2.06612500
C        3.40805744       2.95766715       4.87837480       2.02949851       1.04599380       2.26301217
C       10.37068551       9.89280141       5.72357844       1.50315877       1.49525506      -1.62935006
C        6.92745632      10.08888248      28.56760740      -0.95029389       2.75456980      -0.26035542
C        2.56996499      10.03573532       3.43663783      -2.94683829       2.12087173       2.68287704
C        4.55357240       6.58801228       4.05313489      -0.28941500      -0.12163549      -3.18106840
C        8.37020922       7.98263126      31.00230453       0.60183443       2.57447285      -0.73502591
C        2.59803464       4.09723170       5.30809534      -1.77950380       0.57057559      -1.93994779
C       10.60566438       2.79953544      27.77203144      -0.52771607      -0.34574922       0.64923403
C        9.24822696       7.08789142      30.54382748      -3.96196898       2.68409448       5.14400940
C        4.70900554       8.61107075      30.53303205       0.62373171      -1.79390426      -2.37602856
C        2.88683814      10.53922761      26.83786724      -4.08377602       2.70521152       0.11370909
C        3.54035514       9.68321620       1.13408297       0.34052593      -2.87441205      -0.33966794
C        1.48699139       4.59581236      29.27243920      -2.99041348      -1.45581881      -1.97799488
C        1.80633729       1.08785136       4.33635054       1.79219843      -0.88614225       1.31255839
C       10.05091055       6.22062280      29.93696808       3.08989333      -2.69155597      -2.94923940
C        3.95926587      10.18441640      26.00696363       4.49875892      -0.15210563      -0.60276648
C       10.26054092       2.67668838      30.31853163      -0.08702291      -2.23456459      -0.66122457
C        4.47938993       5.00610799      29.39178342       1.64937279      -4.07229387       0.97298758
C        3.22657575       7.05341972       0.44314442       1.39116754       1.98008994       0.20060835
C        2.85424077       4.18674746      27.25857594       3.01266525      -1.56735145       1.31099542
C       10.65570649       0.03392973       5.28440799       0.47950750      -2.13930079      -0.08917788
C        2.24067165       4.85187170      30.92601685      -0.50423520      -1.81183909       1.25374169
C        4.75048900       0.17869279      25.91521816      -2.32194901      -0.51383025       1.13501676
C        4.48060937       8.80387740      26.64774257       0.66911860      -1.76400081      -1.06163130
C        9.66178571       1.48865118      30.86349726      -3.13212210      -2.46302561       1.74303608
C        0.12472138       6.33933732      25.72819131       0.94490170      -1.26092859      -0.19926623
C       11.19677553       9.71512482       2.87724702      -1.26147554       2.28413138       3.52084676
C        1.53766580       9.73660048      26.81734028       2.21388852       1.02611956       1.89146339
C        6.37152821       0.52445984       2.21709889       0.13042450      -1.19952057       0.11253718
C        2.43897706       0.90886500      26.49106809       0.73120622      -1.42844420       0.37315598
C        4.59313637       2.62681563      26.36405755      -0.80226409      -2.72282025      -1.02463396
C        0.79352651       1.11061419       2.14453485      -0.20149716      -2.25977540       3.33945772
C        6.53956222       2.91607078       1.61017691      -2.97302676      -1.07156227      -1.08058009
C        8.66699552       9.81158460       3.77993238       1.39925570       1.28616558      -2.40907301
C        5.14262856       3.81095741       1.48379220      -2.14161817      -2.88249552      -0.13595179
C        5.92758514       2.12727523      26.12583848       1.12822088       3.96451924       1.57116894
C        1.31877673       6.25644942       2.79238558      -1.53029535      -1.99656707      -0.91019310
C        2.94819393       0.10430709       3.88550852       0.98488299       0.99930414       0.03659051
C        6.73654657       9.54575847      27.17233770      -1.73768937      -0.81813779       2.14424374
C        9.25005612       0.06290266       3.33991707      -1.18275346       0.94190063      -0.82987233
C       10.49484233       7.26641484      28.88965530       0.48838528      -1.34907661      -0.48995265
C        0.71480503       9.85320356      25.74311716      -4.81212058       3.04164079      -4.89302586
C        6.21102537       8.98859964       2.38826115      -7.64513522       2.99168357      -1.25343336
C        6.73146558       8.03802535       4.64084414       0.49575380      -2.08942961       1.56289790
C        2.46732899       3.63921993      28.69155141       1.19083823      -1.80427388       0.48442546
C        6.95205961       2.32428217       3.96351721       0.50292869       1.05244693       0.85179258
C        9.53451255       1.42275638       1.07719577       1.25846073       4.07516868       0.39494903
C        8.69717660       5.79247595      30.28376723       0.36499356      -1.54189616       1.07438877
C        6.12093376       9.41582061       0.92477687       1.60532708       1.88985255       2.67929329
C        0.23503533       9.29107665      28.78902315       0.53980163      -1.19279218       0.10382379
C        7.01079586       2.62102330       0.05488457      -0.19522124       1.03553913       4.37395036
C        3.33434921       0.87962108       0.19391088       1.61756084       0.47472634      -1.55629724
C        4.73855432       5.86075318      28.23751769      -0.34816866       2.86710823      -0.26803491
C        5.91910553       8.51625947      26.62367972       2.42097636       2.40422645       0.34690249
C        8.45797486       1.20512062      26.15875671       3.94145828      -2.85792667       2.01851862
C        3.90988994       8.99497910      28.26402124      -0.86902054      -1.34848870      -3.26806420
C        1.26200513       9.14696846       3.68227289      -0.56040688       1.00447444      -1.74826373
C        7.86631045       5.22839568      26.15681666       1.98767682       2.37179611       0.09355629
C        8.38391660       2.47830393       3.84680144      -0.17607664       0.55021511       1.53683092
C       10.47367154       7.52695674       5.97012093      -2.17621809      -0.82514423       0.04562608
C        3.17910801       7.28580164       4.13546175       0.45433738       0.96384645       2.38958771
C        8.93086829       4.08012570      28.35176146       2.88024004      -4.29544810      -0.12240236
C        7.59780833       4.51409874      28.48903547       0.54053495       1.10290421      -2.36706050
C        4.87417160       8.35652442      29.13942078      -1.82496377      -1.92950690       0.30207121
C        1.05601048       0.42437562      31.25382231       0.30195946       1.40646741      -4.32675750
C        8.43539268      10.26799304      28.73707994      -3.82587603      -0.17331599      -1.82289444
C        9.91114944       9.97134224      30.82957771      -0.66517337      -0.91738862       1.45595282
C        6.25002479       1.95137134      30.41872570      -2.11962869      -0.95528170      -1.69534471
C        9.11792778       7.31631017      25.73172720      -3.37853485       1.65158316       0.85199570
C        1.17890271       8.55283131       5.13086261       2.22422467       0.47325657      -1.27723859
C        2.61238562      11.08648416      29.29478104      -3.53032977      -2.90986841       2.14691582
C        9.64797671       8.66914083      25.70534882       1.04456338       0.77496365      -1.58324362
C        9.87948922       1.23828255       5.40879007      -1.07979043      -0.61107793      -2.88108026
C        4.75669910       2.75367103       4.43188224      -1.79743485      -1.04861618      -2.00237807
C       10.32015788       4.89245188       5.48495258       5.82868761       4.07208998       2.04534279
C       10.19886899       8.58077676      28.37194421       3.25691365      -3.81447551       1.99728098
C        3.42569412       6.67303419      27.47536061       0.04284288      -0.47786575       0.06140573
C        0.59470171      10.49975396      27.86174299      -0.50631498      -1.58059165       1.19366499
C       10.83733497       3.46773085       1.08148265       1.76316533       2.00312609      -1.52463015
C        6.64652271       6.92584170      29.60240375       2.14482971      -4.42624717      -1.36771221
C        7.60610729       0.08667041       1.52202991      -2.48582530      -1.28610075      -1.79830991
C        1.47199682       8.27101699      26.99135003       4.14262968      -1.64855545       3.00864442
C        0.31049368      10.10419320       1.53936517       0.63957963      -2.87223490      -2.05272567
C        0.19673595       1.68067875      27.58027964      -1.14664310       1.01445662      -0.14227016
C        7.27500736       8.94416920       3.16891127       6.72655390      -4.00316058       1.95886591
C        1.52469234       8.04703564       2.61659224      -0.89664932       1.68239250       1.11302535
