216
Lattice="11.29109 0.0 0.0 0.0 11.29109 0.0 0.0 0.0 31.29109" Properties=species:S:1:pos:R:3:force:R:3 energy=-1488.1311806 config_type=Amorphous_Surfaces kpoints="3 3 1" kpoints_density="5.39211557 5.39211557 4.98107131" virial="44.29604355 -46.8610902 24.64108719 -46.8610902 9.93194462 28.78236794 24.64108719 28.78236794 44.0931197" cutoff=-1.0 nneightol=1.2 pbc="T T T"
C        4.42428941       4.30687337       0.11414990      -1.38973070      -3.00169157       3.30240506
C        1.15418651       4.09047963      25.95207906      -0.58623682       1.86958339       2.00056110
C        8.04657271       3.40112471       1.51498941      -4.44768968      -2.06157060      -1.96332703
C        0.14914401       2.67018471       2.58117072       4.35877353      -3.42148163       0.08651027
C       10.43470599       2.65688381      27.93221053      -3.04966243       4.80357486       0.05572069
C        1.07291325       7.32477849      30.22694261       1.76008281      -3.90981717       0.43715931
C        9.51250621       1.33786996       2.62710604       2.49642324       2.86140417      -0.99746586
C        9.02924756       2.85197126       2.33052909       6.17452763      -1.94237601      -0.38948338
C        9.10469462       2.75272258      25.87954631      -6.85186509       0.21502998      -1.29822452
C        9.86642543       6.29978463      29.53293753       2.51551692       0.23857128      -0.22626494
C        6.07016902       6.77943013      25.45098354      -0.53896545     -14.89057968      -2.53868633
C        3.03090116       6.01863649      26.33192160       0.77342790       0.22611245      -1.10422428
C       10.25490667       9.30695192       1.27680164      -4.66324376       1.55307916      -2.67257397
C        4.67882446       8.98936743       4.72173161      -1.59402214       1.85092402       1.83800526
C        6.19359193       9.81332343      28.31659028       1.16396180      -2.57801349       0.24798990
C        8.44861455       0.47948743      26.53077648       2.29031335      -4.34202424       1.93967496
C       11.02419121       4.63181965       1.63455267       0.09075571       2.95903498      -0.85465199
C       10.76581720       4.02518326       5.56540198       3.98102549       3.43664141      -2.29960387
C        0.88720869       2.76085216       3.95650800      -0.38986320       0.02805083       1.20960437
C        1.55438790       2.93747868       1.81378803      -0.22138432       1.16348021       1.06739983
C       10.92324887       4.06245514      25.67327545       3.35024601       0.80414019       2.09381312
C        8.54421621       5.81291283      27.34043343       3.34569944       0.36050713       4.99132940
C        2.27311095       2.39840817       3.01048448      -1.42856258       0.96089391       2.24790904
C        9.29551404       7.25725777      30.87989379       6.53599736      -1.45840853       2.16304696
C        5.88891315       8.46557377       4.78227987       0.74427666      -1.64796832      -1.66132830
C        9.74297994       7.88891522       5.31219448      -0.41582334       0.48365932      -0.60610319
C        8.28747940       6.75647535      26.41381038      -2.12702953       0.35127201      -5.14370626
C        8.72828356       8.93068764      29.07774604      -1.48448330       2.87022174      -0.97663803
C        7.15551376       1.12567651      28.96672525       3.92544860      -1.27213266      -0.57666734
C        3.28495069       4.33520271       3.97418747      -3.54723029      -1.15938098       3.82415032
C        0.11761928       7.39578815       1.13142323      -2.13783493       1.76465370      -2.42567474
C       10.52440241       9.28121952       4.99690545      -0.78765943      -2.10955131      -0.65490149
C       11.00737878      10.39368546       5.48432676       1.02258536       3.91619336      -0.40340199
C        0.13775130       1.10877375       0.80868693       2.52824214      -1.27191075      -3.42467931
C        6.65583786       2.16878128       4.73334060      -0.82187234      -2.69544873       1.39180127
C        1.87279664       3.01494685      26.92751621      -3.20857839      -0.97096265      -0.26506285
C        7.31007749       4.75139229       1.45447245       0.81612845       0.75978457       1.56154182
C        4.61180055       3.41448207       2.26412940       1.58326193      -3.40541360       0.79981249
C        6.49738999       9.19059724      25.99513560      -0.83911875       0.98215722       1.04327551
C        0.34056186       1.58223173      29.74665567      -1.60930003       0.41047560      -2.91272524
C        3.24159290       2.90542328      27.25297484       3.95336193       1.48735524      -2.69520397
C        4.80306032       9.31211195       0.67635691       3.09291821      -0.69637482      -0.16146872
C        0.60998985       8.53381711      30.65819641       1.21869816       3.47302429       5.04762915
C        4.39529390       3.09675080       0.90171534      -3.46891165       1.53552853      -3.91850711
C        0.82044447       0.29890903       3.27470644      -3.27875498      -1.69905171      -0.43143694
C        6.40074955       5.64610955       0.22288643      -2.21561501      -0.37871174       1.71112039
C        2.62483969       9.64311025       4.66165271      -2.23299897      -0.79779289      -1.12091022
C        3.99727168       0.70704806       1.10745426      -4.33007291       0.59451206       2.27438873
C        0.90325333       5.87908991      28.41124582      -1.53373315       3.32568205      -2.03788858
C        0.53957861       6.80011541       4.66640896      -0.24514696       0.76413603       1.81072283
C        8.27355749       8.04408867       4.53921068       0.25233316       0.71701803      -0.18767786
C        6.57269027       6.74469874       2.88575819      -1.28605694      -3.23918792       0.77280816
C        5.01883305       4.86414512       2.35646941      -1.70127718       0.18158901      -2.88735244
C       11.13880707       1.08883368       2.23333897      -2.62093161       4.33950056       3.23032213
C        3.73346666       6.62934896      29.12565270      -1.02845611       3.15764932      -0.88215041
C        1.71666345       0.94823703      29.77544347       0.56080021      -2.34128261       2.42070478
C        2.26422486      10.15349010      26.74831214       0.48398437      -0.61736567       2.10630679
C        3.70912307       7.86145529      30.61711121      -0.46563406      -1.76275801      -0.96209663
C        0.76498264       6.45021582       0.12904446      -0.24770138      -3.87166861       4.97217474
C        6.38477266       3.15807271       3.81526002      -0.31467416       1.55197878      -0.22438199
C        7.75448350      10.01386448      28.30889267      -0.96556570      -3.06944852      -3.28440931
C       10.96774706       9.15501901       3.53874066      -0.73474726      -1.29156317       0.49986538
C        9.28567951       5.10866496       3.23606195       0.05823021       1.54173922      -6.53086312
C        2.98767887      10.98684029      27.78417238      -2.50154914      -0.21963043       0.00966094
C        3.68209220       2.97305691       3.55570043      -2.90776342      -1.07362541      -2.14448729
C       10.10709501       3.15179486      26.68131791       1.47367277      -0.96699216      -1.16087797
C        0.85474680      10.02777510      26.55627872       0.58738922       4.26562017       0.30687539
C        6.23850788       1.56532897       1.86873519       1.69048705      -2.74296467      -5.10481119
C        4.18071802      10.05670288      29.77619446       7.77952895       8.25832892      -0.34189656
C        5.85573993       2.57678481       2.63436558      -1.64883932       5.63213612       3.98167296
C        7.83210974       9.42382599      26.79640654       1.27420294      -2.02962742      -0.97968438
C        9.13740491       3.57043461      30.10622159       2.14197048      -1.22317818      -1.17489833
C        2.40904438       1.97748763      30.69111464       3.35974676      -0.93839046       2.45419182
C        0.41133441      10.87601824       0.22992693       3.46026862       2.68252560       0.48563171
C        0.11029137       6.86085018      29.30200928      -2.23761379      -1.05637070      -5.26976396
C       10.12727219       5.29980053       5.46539565      -3.59844064      -2.37176724      -0.95866930
C        1.31183271       2.40219069       0.47343419       2.00548415      -3.02198395      -0.65121854
C        6.84972846       7.58021682       1.72989662      -4.58875630      -1.86553517       6.88796249
C        8.86991899       5.13912832       4.43526168       1.81823597      -0.55111929       5.29992428
C        2.39418531       8.05272635       1.78562605       0.86787106       0.28947207      -4.73944646
C        5.72366805      10.73574903      29.41910054      -4.54593715      -2.10008906      -3.41330080
C        2.92229217       3.12409782      29.76599356      -1.23243882      -3.51493290       0.21887179
C        2.95621060       0.90848110       4.58827511       3.08315822      -3.85604966      -0.94276434
C        8.08101053       7.70280418      31.08829245     -10.70084368       3.06171958      -3.65804764
C        1.95601198       5.89460386       1.08004326      -4.12460197      -6.08778054      -2.09439171
C        9.62904155       0.12175182      28.73551539      -2.53808866      -1.71516796      -2.27105204
C        8.04783731       3.59463141      29.13200479      -0.36484800       2.34689966      -0.16566095
C        7.31822965       0.61106250      30.47407964       0.43907356       1.92342982      -1.42423350
C        6.95051273      10.62787396       4.82195697       5.45276711      -0.59577361      -2.36860443
C        5.86726813       0.44770301      26.87651173       0.49345998      -0.94095432       0.10428770
C        7.91700745       4.96529070      28.53309333      -4.06934305       2.07060424      -1.78490856
C        8.00625222       1.68163849      25.96825655      -1.44658376       1.36630120       1.26602565
C       10.71427338       5.36405813       0.27755197      -0.89867027       0.53434105      -1.36491201
C        9.30139670      10.45370889       0.80878080       1.90234456      -0.24097249      -2.29466009
C        1.52616018      10.82847146      30.49341753      -2.76120180       0.33778116      -0.34615831
C        9.85460366       9.01568696      26.15500178       0.87610051       4.33092891      -2.62629873
C        7.12208084       9.16653592       4.81059830      -0.79208195       0.64415393       1.29234425
C        9.35762633       6.09479489       0.40112048       1.56877463      -5.28307765       5.83851976
C        8.75266102       4.21114751      25.26186020       1.42217192      -1.09266387      -2.01931509
C        3.49257125       9.27231085       1.42928312       1.79164541      -5.17531345      -0.58793538
C        5.74358553      11.24890649       4.82508608      -3.28545745      -2.52250253       2.06020161
C       10.28052615       2.78821047       5.34454946       0.52661816      -4.08901320       0.90632616
C        1.07144540       8.48780592       0.90036982       1.56420655       2.67251958       1.77223682
C        6.64009808       7.30527877      29.08606947       2.19746734       1.46719893      -1.28691167
C        8.75236745       8.19152772      26.72180858       1.05651752      -1.41638973      -0.35520268
C        1.58935641       3.83580909      29.76627518       0.87477940       0.51899433      -1.99424420
C        2.03821111       4.77800539       4.77104637       0.14444065       1.49775264      -1.98900194
C        9.28897650       2.33692819      30.99010101      -0.83362985      -1.93938902      -1.07183457
C        7.41856228       8.73556631       2.16869157       0.40038597       7.10034498      -1.96169835
C        5.75708968       2.91840803      29.38039346       1.14310843      -2.07267463      -3.45764684
C        2.92416649      10.12203312       2.18292902      -0.80877859       4.12172346       3.94986045
C        3.27311762       5.23738339      29.33949601      -2.96939244       5.43307732      -2.56902994
C        5.44025040       7.83121775       0.85872138      -1.54613849       2.36646855       0.39193918
C        3.89894887       4.99267159      25.77600410       4.88289750      -0.55557275       2.68830564
C        8.87326115      10.23678447      26.11585662       0.91654855       0.37367376       0.01342657
C        5.31861149       5.31678233      25.73460598      -2.52609382       3.36133472      -1.39586112
C       10.34517894       3.45385410      29.18451124       2.29039079       1.49728669      -1.71905648
C        0.05580057       1.74345721       4.77661618       0.54308439       0.87901211       1.85046336
C        4.51359065       7.62180190      28.04454554      -2.31190244      -4.12428792      -1.35576341
C       10.44005796       8.22570585       0.16027296       1.67940629      -0.49178494      -1.01319380
C        6.16143490       4.26738843      25.52501826       3.42385731      -0.86403473      -0.04746378
C        3.63562936       2.09148247      28.55318221      -5.04075109       2.10477242      -3.00222999
C        9.76477174       8.64159057       2.51436425       3.11846548       0.71763193       1.60188975
C       10.59946557       0.31556338      27.70006193       0.37496367       0.72794708       2.46206430
C        6.37263474       1.68557908      26.24508883       1.22193020       3.89112542      -2.75917836
C        9.41454472       6.58975111      28.18357185      -2.29736043      -3.59882489       3.10356212
C        5.83848715       0.64349051      28.35107306       0.17128203       1.48045975       2.29502015
C        8.02611325       0.31704252       4.31422774      -0.19029054      -1.69239285      -1.37204361
C        2.35868612       8.96987901      28.76336446       0.85677199      -0.81433384       3.54305915
C        6.14911632       5.18627991      30.16223264       2.27422069       0.62068124      -1.20645578
C        0.13697221       8.89620465      26.18241277      -3.99044425      -0.32421541      -1.46130857
C        1.85990222       5.08385844      29.02783675       2.81117381      -2.36018844       1.92184442
C        8.48157324       8.65784974       3.10642296      -0.47253629      -1.26777563      -0.08341551
C        2.86657064       0.15780427       2.12995321       4.14696181       3.41432228      -2.43082077
C        9.99041289      10.89211933      30.82754379       1.21092045       1.97043974       2.47511456
C        3.37593429       8.42086105       4.60958434       2.33384737       2.17006678       2.82121817
C       10.56763599       1.16964401      30.85917908      -3.40257721       2.39040212      -0.26313456
C        0.67487974      10.07512994       2.82208082       0.40479542       2.88676372       1.88313923
C        5.48059347       1.30321761       4.74507476       0.62698560       1.73737594      -0.24293464
C        0.19495196      10.57051522      27.73413793      -1.48220273      -2.12973231      -1.99675213
C        0.74170041       7.95172755      27.12515073      -0.30378569      -1.70908812      -1.18776561
C        3.85219247       4.23459910      30.10875616      -0.30603738      -1.54362645      -1.06569707
C        5.82330063       8.02759238      28.21276644       0.06244084       1.95789736       2.61150338
C        0.36341502       0.35599678       4.78459541      -3.61288358       0.33938179      -0.34692005
C        5.83840811      10.37489708      26.70857245       0.94927770      -0.92785886       0.92947373
C        7.97460330       1.58100100      31.27572607       2.81343207      -0.69090761      -3.91651609
C        2.77174806       7.18831437       4.10445228      -0.15492241       1.03619574      -3.74359956
C       11.21488643       1.55923178      28.13779299       3.82724750      -1.46990848      -1.13896155
C        6.39872845       5.14191722       2.56211445       0.43417070       2.75706056       2.75846588
C        5.85854012      10.48714181       0.61170952       0.88542783       0.43527337       5.65159925
C        8.34876744      11.04877192       1.70980774      -2.74371521      -4.25899486      -3.55936018
C        6.20026496       4.52114438       4.30796952       3.47663000       5.12928384      -0.84416362
C        4.61429588      10.41489012       4.93911081       0.71823998      -0.75029096       1.40191889
C        4.35414916       9.15300920      30.59761686      -0.84436105      -9.12130309       6.23593726
C        2.45012137       1.01808371      28.43092792      -0.36506225       1.81781684      -2.10907326
C        0.74333762       4.12447710       4.75195880       2.79874277      -4.00624742      -0.18530553
C        1.43725414       4.40647207       1.32805644      -2.87211454       2.44931843      -1.31343213
C        0.99471116       6.47843225      27.14104661      -0.81271803      -2.36049330       0.03360798
C        2.33157621       8.74633801      27.27537926      -0.62043697      -4.89887112       0.44289440
C       10.48437549       5.57173514       2.73189990       2.95661046       2.84740495      -1.52431131
C        8.67898666       0.24919436       2.86351023      -0.91679968       2.23581972       8.21708978
C        1.93652355       8.06489815       3.15651999      -3.74734301       1.94259260      -0.61263612
C        1.30851313       1.85269850      27.57286365       1.97077536       0.36184169      -0.25902801
C        4.81773874       1.17294101      30.25050480      -0.88083596      -0.57290292       4.78410629
C        6.88416628       5.79236304      29.05449676       0.91531038      -0.51422301       1.44365000
C        3.30458589      10.77617113       5.05948763      -0.43136163       3.86067386      -1.08098667
C        4.93724363       5.46532791       0.83825701      -0.57121247       0.36057466      -1.96135603
C        3.79282392       1.69362963      31.26743394       2.23647068      -0.80165449       3.01195990
C        8.00449081       1.66842791       4.99371376      -1.31239881      -1.31774015      -0.34357456
C        7.13429780      10.13352745       1.46016742       1.33529507      -2.67089933       0.23029144
C       11.20946671       9.51829854      28.84900817      -0.91210921       2.78921606      -1.66530705
C        4.23365065       6.99103645       0.52537740       0.02183922      -2.65175888       1.31286681
C        7.39674789       6.23106705      25.30982944       2.96200149       2.41872223       1.58094244
C       10.56945386       6.58146345       5.43479297       0.08280609       4.60883032      -1.86304910
C        0.38747634       3.08675818      29.61294884      -2.15645486      -0.43556153       4.33483596
C        2.99988454       6.64725663       1.54333914       2.21727848       4.09686066       1.69294823
C        5.33983874       4.02635753      29.96926049      -0.44807827       2.81559908       0.35331888
C        9.94340808      10.22351744      29.51225412      -0.67743321      -3.25746552      -0.34664053
C        2.18848423       0.91550416       3.22113610       1.27347092       0.32448800      -0.50845691
C        5.13066000       5.67772461       4.51417781       3.24176071      -0.10252743       2.40296831
C        0.34356529       9.92220341       1.32852581       1.48510742      -4.55296871       1.47794093
C        0.30482556       7.75955320       3.54947350       3.74664622      -0.00689599      -1.51397331
C        5.03120808       1.71857164      28.91550174      -4.72435187       0.92039417       2.02665965
C        6.06821566       7.92429020      25.68622996      -1.53118107      15.37909789       2.94930472
C        9.91905320       4.95512872      30.16761470       0.68124533      -1.80431619       1.86814304
C       10.96263219       8.05807833      28.28217008       2.98067572       2.44818007       1.84056342
C        4.14141374       3.49937978      26.26308120      -0.33245002      -1.14090132       0.88355887
C        7.53549281       4.88427713      25.25425646      -2.42857091      -4.83072926      -0.54807626
C        5.31630811       0.52123059       1.41426339       1.47252290      -0.64693650       1.56485837
C        8.25450942       0.18893381      28.19080009      -1.58814327       1.17239218      -0.06565728
C        3.34728879      10.15642578      28.90107655      -6.96592934      -1.90996125      -9.37031415
C        8.59382926       5.40134131       1.68011250       0.97306041       2.56751166      -1.70231079
C       10.41442719       3.42981537       2.20630346      -3.20738948       0.26379419      -2.14984003
C        5.57091090       2.98606424      25.89040432       0.30511395       0.10306156       1.75532660
C        7.71157736       8.09970858      29.82200462      -0.18606670       0.29984317       0.00526261
C        0.94816928       3.67005589      31.10694194       0.53502272      -0.06400658       0.81871048
C        4.18761688       5.32675236       3.53992972      -0.08954471       3.31140847      -3.80441272
C        7.03108594       2.65648862      29.00762271       3.25983607      -0.87919325       0.03306927
C        9.03454308       2.32677750       5.46320528      -0.54929633       0.25947047      -0.28240083
C        3.44841180       7.41106500      26.99776471      -0.03133664       0.72493905       0.35019954
C        1.72854168       5.57411756      26.19370886      -1.72528286      -0.16611964       1.25994086
C        3.49996691       6.51064573       2.99790546      -0.06481904      -1.15938254       0.59762597
C       10.00553166       4.67693884      24.80231925       0.68033786      -0.42493094       1.40706106
C        7.24977178       2.19578956       0.86507347      -1.19326952       1.72039219       6.93932802
C        7.63729328       5.53311962       4.78334376      -3.89732741      -3.74600892       0.95843021
C        1.83935243       6.24017896       4.74313471      -1.37662140      -0.13507455       0.84482892
C        4.12077362       1.67326050       4.37014492      -0.40711875       2.09438813       0.81613365
C        1.16596312       9.56965042      29.67819077      -0.45919662       0.11019798       0.67935279
C        2.10613831       9.64385546       3.29044586      -4.84706393      -4.21383766       0.35291628
C        2.57106023       7.63065412      29.64689968       1.25488603      -0.32567333      -0.23190848
C        6.66186730       7.11888546       0.46511076       5.22151331      -1.52125718      -4.67917028
C       10.51959240       7.22457006       2.35190091       5.02785826      -3.30252007       2.67655707
C        5.98061939       0.13492853      30.78345465       0.46545622      -1.18008575      -5.25663098
C        5.82838162       7.10749275       4.26973181       4.00847113      -4.21556965       0.08305101
C        9.43853828       7.97408391      28.03396915       1.01976674       2.00890126       0.73773425
C        7.33907301       6.78812427       4.46448756      -0.83753438       2.46610308      -0.56657202
