216
Lattice="11.29109 0.0 0.0 0.0 11.29109 0.0 0.0 0.0 31.29109" Properties=species:S:1:pos:R:3:force:R:3 energy=-1478.83450089 config_type=Amorphous_Surfaces kpoints="3 3 1" kpoints_density="5.39211557 5.39211557 4.98107131" virial="-26.1938542 19.40219548 13.44423251 19.40219548 -83.68972131 -4.74738223 13.44423251 -4.74738223 -31.67430126" cutoff=-1.0 nneightol=1.2 pbc="T T T"
C        1.04609691       3.89774072      30.19630863       1.05598612       0.45635678       0.35267509
C        5.22200492      11.11220526       1.05350842      -2.96607990       2.86884445       4.06588883
C        7.02776636       5.41900057      22.75497452       1.64983652       1.42450862       1.93108516
C        5.22689396       2.05060873      22.86399268      -1.50300608       3.81686503      -2.37231190
C        4.00102032       1.99533884       6.55520174       1.70063059      -2.18197233       1.06883041
C        0.27472351       4.25049696       5.00275689      -4.37799480      -0.64386373       2.94208768
C        9.95408945       3.29381419      22.51030949       0.64276459       0.74006212       0.41358835
C        2.60222364       2.53388996      22.60562215      -2.97028068       0.02736879       0.02960961
C        2.24359604       2.50680264       3.54768991      -1.10064768       5.01259266       3.26170128
C        5.94711872       5.49230233      31.26978077       0.75349494      -1.62321037      -0.82336443
C        4.47424120       6.99595936       2.98432513      -6.23232809      -1.21443975      -2.69810439
C        9.04041445       0.76230665       7.66694287       1.74187910       0.33923147      -2.56639564
C       10.10453193       2.69313950       6.25267948       4.79600737      -4.85073125       2.72822075
C        7.64709394       8.38296815       3.86476253       0.10735118       1.66093384       1.97539991
C        6.83013842       8.13840314      28.90101396       1.87613102      -1.82435783      -0.14089239
C        9.02618767       7.85496291      25.39215630       1.66814508       1.14906285       1.61315632
C        8.98801250       9.20344650      29.32172267       1.31850910       0.09000072       0.40147072
C       10.00014581       0.35804046      29.56260148      -6.38399080      -1.62500605      -0.00127129
C        7.73907116       1.63869847      29.23063431       7.51696716      -2.20834369       1.84083956
C        8.37923080       0.11794673      29.43853231      -2.37754812       2.66128037      -2.93914074
C       10.40129565       1.95078420      22.59986459      -1.03404537      -3.32845871      -1.31236130
C        2.29644963       8.23626302       1.23853263       7.66577848      -7.33143112       6.60291777
C        8.43537010       5.04905930      22.71285671      -1.40659871      -1.38539050      -1.99951780
C       10.57882546       4.59026844      22.55230213       4.06741899      -2.39741324      -1.23480986
C        7.10557327      11.07938206       6.43541944      -0.49007135       2.85475250       3.72173093
C        4.56931217       4.75046642      28.67052379       0.96575912       0.07902217      -1.57672580
C        3.72974060       1.32556267       5.00882736      -4.67893020       4.75505495       4.92361908
C        4.66648330       0.51835136       4.53207631       6.20783673      -3.15985578      -4.49477425
C        1.08619157       9.92005811      22.66078834      -2.65273067      -0.78529026      -2.00579234
C        6.66255606       6.28110917      30.20481981       0.33478025      -0.96292132      -0.51318945
C        2.51090130       3.85446198       9.30546951       0.89530856      -0.87488575      -2.80926884
C        6.76219993       7.38886671       3.30089708       3.12771775       2.86235899       1.99794772
C        7.89792551       1.60392192       2.66559408       4.13457774       0.79453610       1.09184577
C        7.90922789       9.17191048      22.62605523       3.16881387      -1.65462080       2.62711941
C       10.29764345       3.30143568       0.38710207      -1.31521080       0.48095165      -1.83792751
C        0.24975891       2.04574227      28.54432683      -6.19147066       3.46509767       0.76607357
C        4.09194747       4.40273472      29.99269751      -0.59276725       0.38843142      -4.30072630
C        2.93153957       3.68769258      30.10328022      -3.41922803      -1.38801049       0.50192150
C        2.00556857       3.99505863       3.43363389      -2.59690206       0.68145179       0.67182441
C        2.88979641       8.69865574       5.17457626      -0.17292836       4.02053763      -0.34192529
C        4.71371392       7.14983434       7.92446854       1.16832347      -0.07416054      -2.30401222
C       11.08623575       8.00000825       6.80362170       1.66829289       2.77107100      -5.05118930
C        7.42882588       6.23455600       3.02591099       1.67315525      -3.31176170      -3.53710218
C        2.31296850       1.47679553      30.40605281       1.21944055       1.80019514      -1.56359255
C        4.49776054       6.80387534       6.40944784      -2.97752304       4.34480438       0.88911681
C        4.88942587      10.70660673      22.27140202      -3.26011848       1.07930212       2.22528513
C        0.74345053       1.63319971       5.49349505       1.73530299      -1.37580068       1.54840794
C        6.84136176       9.89977931      22.46587614       0.68131608       3.46277894      -0.27410138
C        3.12479787       2.58851626       4.56230350       4.94012945      -0.10912624       0.19552678
C        7.93214880       1.10761076      22.71930268       2.14489668       3.54552051      -3.58415955
C        2.51000931       1.22558007      28.98891064      -2.37161768       0.35349008      -2.29818561
C        5.73267834       0.61393044       2.11753064      -2.21146233      -4.60893518      -8.41908195
C       11.23963650       6.52794368      27.77012268       1.67940924       3.23421050      -2.44114586
C       10.18749886       8.13442868      30.92576652       2.92937423       0.71080795       2.03022445
C        7.69904425       4.52471237       4.79401403       2.87276590       0.96051012      -1.68927435
C        4.57688850      10.42460046       4.22364004      -1.87583689      -1.20277322       1.73071384
C       10.02626210       7.34510245       4.48032085      -4.80042221       3.08184734      -0.11673313
C        6.53126326       9.40018245      28.78251461      -6.26334527       0.96820656      -1.62444420
C        1.14235345       5.52850156      27.81903065      -1.46998824       6.61024712      -0.34023010
C        1.01405279       7.47333536       4.62560538      -0.95332033      -0.01222223       0.96555666
C        0.42855332       9.36763024       6.24782936       0.57067602      -3.22529853       2.37230455
C       10.01774862       5.89551844       0.44780679      -2.85568888      -4.15891275       0.73782735
C        9.34514968       8.66655517       8.08702576      -0.42337373      -0.44849911       2.09571133
C        0.33388882       7.02261763      22.63347122       5.06446119       1.40746626       0.76842742
C       10.21957685       0.56044454       2.98006954      -0.70555237      -0.79487139       0.30636663
C        3.75021134       0.24483600       1.09600172       0.00769553      -0.01202682      -2.25507014
C        7.09673234       4.24839681       7.31379163      -3.47963669      -0.04049581       0.45865654
C        5.74128215       2.07778638       6.30859665      -0.96538078      -0.28505219      -1.40966269
C        6.07182881       4.38857570      22.87140867      -5.35654080       2.33023695      -0.01151712
C        7.22787835      10.55782403       5.23997464       0.79440837      -1.42261506      -6.26510672
C        3.38632209       1.77676592       1.65567415       1.71523314      -4.75845617       0.49931143
C        2.26789446      10.93328665      22.40047776      -0.53276001      -1.68970468       3.10430268
C        0.66905354       7.67729761      27.36581051       0.02261952       3.62913275       3.10319109
C        3.71205875       9.80525030       8.27511650       0.73535671       1.95507985      -2.54256438
C        3.61239230      10.23861363      22.56863608      -7.33061360       3.01094546      -2.65082065
C        9.67245579       8.21272110      22.82575497      -0.64992683       0.20803626       0.08783412
C        8.01039605       1.63349328       7.60692656      -3.68346021       4.23817029       0.32995568
C        2.55136857      10.88522048       0.35258800       8.08899912      -0.42270479       5.77682445
C        8.16030786       3.28740085       7.74761130      -2.58214400       0.47518267      -4.38214913
C       10.33953339       5.03514867       4.94480579      -1.89482116      -5.94255097       1.21537436
C        3.76565755       2.79591100       0.83346947       1.58511649       1.14704173      -0.22473273
C       11.20216138       5.38588380       1.08120103       4.50681416       2.25321021      -0.73169226
C        9.41533509       9.90155201       4.09947699       0.38609160       0.93526850       1.95623814
C        0.29046329       4.29911639       0.03977098       0.11759624      -2.80020334       0.65399497
C        2.30018698      10.43446887      27.95233070       4.31885078      -1.27893390      -0.86110433
C        1.13613206       6.30285580       1.65664418      -2.36877385      -2.62960078      -0.27128653
C        0.10570718       2.92548755       5.66562734       0.19621565       0.62285859      -2.72229064
C        8.52267281       9.61089677       7.90553743       1.81268602      -5.65371981       1.84384313
C        4.01890541       5.98878284      22.86305395      -0.57915908      -0.64047974      -1.34925843
C        5.02924343       5.68287334       5.92459240       2.66860177      -0.34848566       3.38598894
C        9.59787814       6.01493301       4.29363821      -0.01653801       1.54000652      -0.27256834
C        9.01940173       8.56221420       4.45222145       0.79297696      -2.45204607      -3.97889535
C        8.61649047       7.48471678      24.27052717       0.08455093       0.88272167       0.53010058
C        4.56433280       7.13176859      28.38258318       1.47202959      -0.02792151       1.92050302
C        0.41816552       6.95496142       8.58308340      -4.72580219       3.08619994      -0.07196773
C        7.52542116       5.44808642       1.79745408      -1.72688581      -0.16362899       4.91794651
C        5.45803387       6.07984549       8.41392377       0.17540619       0.50475248      -1.54464568
C        1.11037708      11.06244543      27.50780947       2.15542957       2.59916981       2.53954666
C        9.06866476       4.13925714       5.41498571      -1.12901701       2.25699648       0.11744621
C        1.37851789       4.83080253       4.44856039      -0.55071712       0.86390064      -0.38822521
C        5.85846108       5.19905014       7.15013923       2.98018735      -1.22475072       3.31082168
C        6.07177236       2.51020126       4.75812315       0.33962806       0.13986717       4.25565077
C        6.19375000       5.18445076       1.45688186      -0.67683157       2.90254320      -4.66708983
C        0.23945015       8.25884520       0.31547677      -1.62723604       0.60344074      -1.47283451
C        3.36412381       1.45736357       7.74313668       2.13696686      -1.99289676      -0.52067296
C        2.11004503       7.83596000      27.78939799      -3.44884831      -1.93543794      -2.97048180
C        2.27383358       6.32182484       2.64600586      -1.32424179      -3.30366041      -0.21881676
C        8.21410990       5.58345530       3.95197079       1.84237758       0.53042096       3.43377373
C        0.59858585      10.67071235      30.87419881      -2.70700362       2.54746309       0.17411650
C        6.34162941       3.08279501      22.80776259      -1.74849282      -4.81279346      -0.23599226
C       11.20658748      10.80632963      22.52429661       1.57878266       0.34388844       1.09010267
C        3.17831763       0.01518652      28.59245253       3.23960163      -0.63738918       0.03599868
C        1.10567999       1.56103836       1.55081771      -3.44567692      -1.59545329       0.07943380
C        3.72775336       8.09049505       6.23265318       0.35430459      -1.35801201      -0.10773207
C        1.35933433       5.75972050      22.78620303      -0.12793098       9.78812083      -1.42921377
C        8.23576621       4.13427777       1.60041409       4.29845635       0.92664498      -1.24034318
C        3.19458809       9.95742032       4.66234112       1.28059701       2.64445176      -1.92038702
C       10.47835734      10.70614379      30.40761736       6.54945087       0.83431427      -0.26466099
C        5.92732544       4.06095343      28.06635543      -4.66420264       0.09496390       3.45792328
C       11.09940117       7.74074224       5.27905721      -3.57370122      -3.66194683       3.98891917
C       10.30117756       1.71189861      29.25181837       0.16657710      -1.18964819       0.26520600
C        5.94652030       0.40501140      28.88909206      -2.18320080      -2.95038830      -0.39774883
C        9.32233038       1.00231006      22.41452746      -0.69740214      -3.38810483       2.92167814
C        1.83265682       4.86403221       8.81798562      -0.59031994       4.20809762      -1.87248605
C        6.98591029      10.65193527      28.97467319       3.39794891       6.37024280       1.63345360
C        7.55333273       2.59897181      22.48965737       2.26613105      -1.11691118       2.53177522
C        4.55896954       4.57486739      22.92178732       0.84068616      -0.24865608      -1.20839752
C        4.34186446       5.22921993       3.36826680       1.29004563       0.40286875      -1.11060029
C        1.24399584       7.45023379       0.96786470      -5.81227586      -0.99275775      -0.97849889
C        1.66176617       3.54394571      22.57426848       0.63816510      -1.79682287      -0.42295573
C        3.36020580       3.31595602       6.66612865       0.13665936       1.05565228       2.97051885
C        0.13568503       0.63136388       6.49121146      -0.21623232       1.07277259      -1.79533448
C        6.00304349       2.93327840      28.79274679      -3.36781148      11.58642433      -4.76914329
C        2.08843388      10.99109703       4.25195847      -3.79559806      -1.14296571       0.15393753
C        4.09815757       8.62153759       7.59666308      -1.05607345      -1.20064514       0.20309031
C        8.23997779       8.07795065      29.10312311      -0.32719390      -1.56873914      -0.93506640
C        2.96485958       3.60429659       7.94508937      -0.65744213       1.14009937       0.84894521
C        0.17933638       0.85618077      22.62070445       6.33634308       5.93314301      -0.26873828
C        8.92976177       6.81315662      28.67499842      -2.38243361       1.49537949      -0.05518218
C        5.09032823       9.56893908      28.50709043       1.05424346      -0.37312794       0.69970790
C        3.39092886       8.81258283      22.48027004       7.95539591       2.55924170       0.50872082
C        2.28870394       9.38082952       0.76647525      -0.75620768      12.95823970      -5.09457401
C        0.49689829       4.49847188      27.80961204      -2.32803492     -11.24756244       1.88379330
C       10.74538033       1.27414305       1.88685273      -0.14721791       2.68579272       1.06345211
C        9.25473063       6.83838091      31.05468582       3.36776155       1.77594975       0.25131322
C        4.81497242       8.31025353      22.51181146      -4.67977149       2.24797992      -0.33935000
C        9.93028783       2.45709926      30.43462158      -4.22210057       3.45470588      -1.42196364
C        4.94975416       4.50592400      30.98215307       2.31260142       1.89180402       4.51926358
C        3.08299825       7.40895356       2.18270998       3.49176724      -1.96415927       3.66955409
C        3.98825010       2.86981118      22.61403945       1.43506670       1.03468942       2.29114161
C        0.41229415      10.56827958       6.65408158      -0.27256123       2.06147529      -0.35659461
C        2.89964224       4.92113125       3.18784238       3.33444290       5.74160581      -4.97047533
C        5.53082753       9.45189564      22.47435603       4.34859346       4.32367833      -1.56824989
C        5.04187816       7.04363035      22.75071893       5.12717280      -4.60915369       2.04227162
C        9.70071739       2.40005667       1.44489737       9.64546873      -4.48941174       0.20615873
C        0.77380098       4.59198468      22.53243229      -1.02662147      -2.88012816       0.71523941
C       10.76582849      10.67547719       3.71756924      -5.49798410      -1.05029506      -0.38016089
C        2.45930102       7.94446738      22.67405576      -6.04974769      -1.01728933      -0.66346129
C        5.95219971       1.43947848       3.94176990      -4.05449342       0.82423441       5.59745423
C        1.23800027       1.30672914      28.25119190       5.12708478      -5.89583213      -1.34432342
C        5.56146025       0.78124181      22.44919799       1.77955667      -6.93003777       0.14444457
C        2.16136303       2.01084151       2.32824484      -2.56073657      -4.92253200      -6.62439490
C        6.44339600       3.90172648       4.63514916      -1.57914640      -0.89146904       0.97798042
C        8.26376811      10.93640299       4.27426902       4.00821412      -1.50894231      -1.84870162
C        4.84352759       4.72445175       4.96333011      -1.39174491      -1.29162323      -4.83112551
C        7.01148461       0.12968946      22.47401182      -4.73028633       0.99853866       0.38054006
C        1.54570506       6.27834285       4.47112127       1.87579466      -1.78744551      -3.28066741
C        1.90000817       1.11800986       4.69982784      -0.13426772      -2.06076568       1.53282897
C        7.83099192       7.78431456      23.24471137      -4.20663210      -0.42543839      -3.35660617
C        8.73196445       0.65497355       3.35399806       0.22766019       1.61394512      -1.29400432
C        9.79408341       6.88772298      27.64170405       2.41161312      -1.93646972       0.71918228
C        1.03721082       8.30640327      22.61116067       2.95979102       2.89557901       0.71423872
C        5.47218160       7.82262523       3.16302854       1.01581586       4.29259723       1.58456381
C        8.43102303      10.72116094       7.38150555      -1.95254035       6.81491055      -2.82444424
C        0.30301898       3.44012414      28.57596212       2.66672730       3.38406872       1.17541014
C        6.74744247       1.13318508       6.79116784       1.43999762       0.42526626       1.74892231
C        8.63553854       2.73551496       2.14606812      -4.81405933       0.99738089      -0.93546403
C        8.16206927       6.53859118      30.04370199       1.96948693       0.14032699       1.09443294
C        5.54916426       9.39539503       3.77420611      -2.11638482       0.53418587      -0.80345688
C       10.92796855       8.98800121      27.15462694       0.96941491      -2.08179864      -3.29475398
C        5.01683453       4.64477053       2.09168420       2.66962076       0.97232002       1.16720016
C        3.14215227       2.45939135      30.90045203      -0.07103340       2.70908391      -1.48545792
C        3.74034293       5.91111144      28.23194788       0.54841487       1.37043654      -1.24696462
C        6.64607107       6.72497320      23.04563746      -1.86301402       1.28520595      -2.39695148
C        9.85032433      10.88957884      22.55611964      -1.48673413      -2.58356678      -0.65622800
C        2.96875500       9.10712221      27.77387761      -6.32833516      -4.51312172       0.31383695
C        0.67609918      10.21437166       3.93394713       8.73404501      -1.02051440       2.10397996
C        8.55901883       3.60203837      22.54022377       1.39650355       0.25650677      -0.12236509
C        9.16249371       3.55353184       6.67626696      -1.14285059       0.21106722       0.96841443
C       10.31975140       7.80163509       7.99747066       4.52153709      -2.86560919      -0.91612799
C        3.47303766      11.15619535       8.15592874       0.41347680      -5.96273766       2.01769604
C        8.85114191       2.52696852      29.44497827       2.75923534      -0.50198540       2.31363791
C        6.44976418       1.82462885      28.95890248       0.64819587     -12.28531945       1.88952063
C        4.17188839       8.62266670      28.23088398       1.87743239      -3.79853754      -0.19257846
C        1.58634169       0.55255207      31.12349492      -2.45169972      -4.35377892       4.58684712
C        9.32681295       9.59602640      22.68097109      -4.11976655      -1.99748048      -0.49646527
C       10.03658215       9.44608073      30.18157053      -5.10930572      -6.11904728       0.24898031
C        4.58832637       3.95273962       0.99064462      -4.17251940      -2.28453967      -1.39482560
C        9.78249876       5.71758215      22.45799079      -3.56138945      -2.52404305       2.14899947
C        3.16851697       0.95016781       8.96082944      -0.65144841       1.18981601      -0.00338352
C        4.58383252      10.80016470      28.67211964       1.27133307       7.34207854       1.18552802
C       10.30070333       7.01168785      22.65556273      -1.36883806      -1.17147282      -1.00713545
C       10.25258071       1.28659712       6.84123359      -2.81406353      -0.16689888       2.38779705
C        3.44301466       3.85440552       5.39132964       0.88089416      -0.11708980      -1.94021193
C        1.33688764       6.15113743       8.36692456       1.79925541      -5.26387082       1.66045745
C        9.96317878       8.17903977      26.23538859       0.28525461       0.29497031       5.44365369
C        2.35839255       6.08459903      27.81965648       5.69710904       5.94875784       1.45932462
C        0.27092970      10.20503393      27.15168558      -4.96534981      -3.43232186      -1.71358269
C        9.36941423       4.36794688       0.76544264      -2.13447339       4.10105570      -1.56887045
C        5.97915155       6.97673064      29.09201478      -1.44269747       1.35868143      -0.57833254
C        6.51249747       1.40745695       2.72520361       1.41623993       0.45157857      -0.13198660
C        2.56820358       6.59024792      22.63763293       4.25007856      -6.84469299       2.06663990
C        0.99913726       9.54545361       0.28365373      -4.71992460      -1.99578356      -3.06345915
C        1.62561210       0.98599443      22.63403446       2.80669502       0.40556491      -0.69517875
C        6.87214127       9.65270768       4.07428766      -0.19389557      -1.95883147       2.14031876
C        1.39072356       8.81192795       4.78631642       0.19939509       0.90110554       0.03569111
