216
Lattice="11.29109 0.0 0.0 0.0 11.29109 0.0 0.0 0.0 31.29109" Properties=species:S:1:pos:R:3:force:R:3 energy=-1473.54109699 config_type=Amorphous_Surfaces kpoints="3 3 1" kpoints_density="5.39211557 5.39211557 4.98107131" virial="-66.01535733 21.16191587 3.39910086 21.16191587 -49.51139018 -16.13751956 3.39910086 -16.13751956 -56.09913917" cutoff=-1.0 nneightol=1.2 pbc="T T T"
C        3.27202239       4.42678475       1.94677516      -0.33914450       0.13855851       2.73061067
C        0.61242872       1.77023967      24.13944880       3.11791398       3.37420698      -0.64808701
C        8.32099136       4.02840122       1.68759107       1.30643270      -0.91012989       2.46858585
C       11.08292746       4.11637010       2.14710072      -4.21537071      -8.13742294      -0.11602409
C       10.94212757      11.23812350      28.18510512      -1.50819705       3.51930996       0.86875325
C        0.28707596       6.75550431      27.56447764      -7.12184242       2.20094870       2.37204632
C        8.61551944       1.83809912       3.14916659       0.69670610       1.67425640       0.96171340
C        9.59040344       3.29309156       1.60642198       1.88713142       1.21942554      -4.60648813
C        9.11502597       3.91744368      30.33301941       1.02673063      -0.03434662       3.23518286
C        9.21605864       7.15681223      29.17330903      -1.21472944      -2.70690220      -3.54899568
C        7.89663832       4.51400842      24.64461216      -0.77164869       1.49520369       2.75011479
C        4.47302176       5.66550765      24.98484018       0.24572266       2.33460096       0.05330812
C        0.00624397       9.70945669      31.16736503      -3.33966605      -0.57989928       1.38558179
C        3.72356437       9.71942673       6.62989357       2.18791762       1.46069314       0.00993970
C        5.54715444      10.94932000      28.74537208       2.80592489      -5.21570213       2.62925770
C        8.63159795       9.56294351      24.66939470      -4.33031274       9.34039462      -1.39981780
C        1.50670563       3.92056002       6.37462085      -1.72718697       0.61514330      -2.81693550
C       11.07719159       5.54891585       6.31501133      -1.46483588       6.08903531      -0.18287718
C       10.11790058       3.77076113       5.55182164       1.64533646      -5.18729700       0.99448427
C        0.20115077       5.26722574       2.35775234      -0.69101790       1.58415451       0.09676300
C        0.26842308       3.15965346      23.97930100      -5.41396372      -1.70208789       0.84265103
C        6.60324396       6.32447824      28.38158187       1.26974083      -0.77376405       2.54760652
C       11.26649801       2.68572125       2.53792644       0.47674810       1.49213299       1.25802615
C        9.66476656       8.25286092      29.86196334       5.85914732       2.77629215       3.55018301
C        4.23186666       7.63032667       6.53045048       3.46327727      -3.23351928       1.97689147
C        8.71591981       9.68784555       6.60708236      -3.38316943       4.19551239      -0.75126689
C       10.08261593       5.56587507      24.31702573      -4.52279465       1.57417902       1.39325352
C        7.94290921       9.69980281      29.62052129      -6.10787132      -0.06815968      -0.07656231
C        6.96592506       2.51860183      29.97160732      -3.29437850      -4.38299209      -4.86446651
C        1.93521379       6.11461075       5.05498172       0.07275962      -0.85737664       0.20176907
C        1.20960318       7.71669222      30.87754695      -4.73341489       3.79574800      -2.82833126
C        9.91119460      10.18779243       6.94158411       3.13322849       2.03577256       0.79739580
C        9.89893248       0.37358829       6.59897797       2.31940062      -4.60078378       2.70265491
C        1.94703556       1.09905212       1.36801516       3.42852691       0.95734363      -0.01000789
C        8.20629647       2.88360889       4.62175658      -3.03063261       0.44435240      -1.41655594
C        1.98005071       1.65280105      24.34850457       2.06235191      -3.02637669       3.34980663
C        8.48204747       5.83381263       3.74150692       0.28982633       4.53090494       2.06602203
C        3.22262387       1.84251394       4.26353618       0.47038036       1.63253513       1.35878986
C        8.00205194       7.17688779      24.34365445       1.61834442       1.88270299       3.65143581
C        1.10683168      11.16467496      27.87269487      -7.04975506      -2.13786598      -3.89215388
C        2.94014338       2.81071362      24.92338448      -0.74090431      -0.13202813      -2.55133252
C        4.89576017       8.95993156       1.57500572       0.61926408       2.95156035       0.18383586
C        2.64182149       9.48206543      29.47217023       3.46365887      -6.15618197      -0.27799351
C        3.77255641       3.46074167       0.89445581      -1.10280088       0.11979706       0.11045840
C        1.63063664       0.28140784       2.45763350      -0.81803189       5.22295496       3.48850869
C        6.68066697       5.13740079       0.55616783       0.87897763       3.21478596      -0.07735807
C        1.88834447       1.25630313       3.83381564      -2.94545811       2.21499204       0.57413169
C        4.09891407      11.09940117       1.74407148      -0.85627535      -0.42769909       0.84705243
C        2.58236261       4.27408404      24.32403494      -3.69231214      -0.27963045       1.37553629
C       10.85073749       7.99080601       6.67889541       2.98274027      -3.05823010       1.66907602
C        8.36347973       8.40963771       6.43786015      -0.38312842      -8.22095482      -0.81103764
C        4.95062357       7.52058857       4.30562269      -1.19346290      -1.77389768       1.23281801
C        3.58521464       3.76311706       3.05084998      -1.24621834       3.36597651       1.02087486
C        9.94977625       1.88464100       2.43015992      -1.21689924       4.99352263      -2.90772392
C        3.99932666       5.58471990      27.02808577      -2.09920503      -0.25576704      -0.72373040
C        1.52857647       1.37683551      31.22788200       2.35765609      -3.37135071       1.97788121
C        1.01698848      10.19832702      24.39806966       5.90115450       1.19180053       1.81202376
C        5.93575989       8.51209306      28.82297399      -4.40456433      -4.40122146      -0.44332352
C        0.87404328       5.60919898      27.51219023      10.97197676      -4.90400413      -1.12392243
C        5.66999021       3.13709386       4.41836449       0.48926975      -0.34452415      -2.12852852
C        6.85098177      10.88421557      29.37957989       4.00675249       3.67700877      -0.27951172
C        1.34922880       9.51077868       3.97468813      -2.66632263       3.27579043       1.09600171
C        8.71902486       5.60274048       5.16162175      -0.01334262      -5.65781637      -4.42221997
C        4.62952756       0.89278649      25.36871927       0.77015284       3.76318520       1.97524072
C        2.63347738       5.78316080       1.96971153      -0.22148435      -3.09217553      -4.65205177
C       10.00532842       3.15068834      24.15772279       2.52489635      -2.42747636       0.22746505
C        2.23546645       0.15612190      24.79731267       1.22124756       0.47477734      -2.45447195
C        4.30923321       2.71540553       3.40027759      -0.13005078      -1.88509193       2.97344423
C        3.82295983       9.88375725      25.75056444      -0.17365060      -0.90743714       1.88713162
C        4.07623027       2.92608597       6.46232978      -0.13532225       0.55164833      -1.68101418
C        0.75965324       6.73315924      24.23325949       1.82120119      -2.60152335       0.87178288
C       10.43830785       4.96103396      28.51200313       0.31765188      -2.20867044      -0.81945465
C        2.92095982       3.29462715      30.98712835       2.92333565       2.72207386      -0.63057534
C        1.14454392      10.16453279       0.64102927       2.42555924      -1.57367793      -1.27098625
C        0.16370951       8.08342682      27.60916131       3.96207313       5.50831507      -4.73068171
C        9.77054149       6.13563476       5.90850878       0.44438421       2.92075897       0.37386284
C        2.16306798       2.43776891      30.37300942      -4.99288888      -5.81693464      -1.26040053
C        7.19550680       8.08740129       3.23265122      -2.82806446      -2.29983818      -2.32221197
C        7.22372323       6.31665352       7.13336721      -1.86503816      -2.65734384      -1.64785457
C        2.90648464       6.75487201       2.89599038       1.88673245       3.53870975       4.10263070
C        4.62627572       0.58829966      28.40376725      -2.17170239       4.06318875      -2.95428393
C        4.48725982       4.40200080      27.63794912      -1.43785655      -0.37853553      -0.90411091
C        0.92089001       1.43952365       6.26982699      -1.30735775       2.02104284       1.62382242
C        9.21815879       9.65269639      30.16069937      -1.18680082      -0.87463199      -0.73762862
C        2.39191580       5.99171853       0.28756512       0.96774753       4.13011900       0.28888909
C        8.98301055       1.16644863      29.61801800       2.19108065      -1.40377446      -4.58421031
C        7.55755560       2.78629099       2.50106553      -3.53546372      -0.39767785      -3.49086425
C        7.06329942       2.90143752      31.28542631       0.10096023       3.35884273       3.15837923
C        7.00363731      10.64377181       4.88810633      -0.91529739      -2.52979247      -0.53414527
C        6.48564726       9.38840584      25.11754569      -5.02064449      -0.15408614      -1.05957943
C        5.36786322       7.07357432      28.38787138       2.86184113       2.75425414      -1.43975603
C        8.04437094      11.04573461      24.59457770      -0.29140156      -1.48164871       3.12606133
C        1.10257494       6.72257949       0.46376524       3.33592995      -3.57914935       1.41090613
C       10.12056528      10.58294671      30.90057720      -0.62706086      -5.60875470       0.08927375
C        1.94385147      10.49975396      29.80463806      -1.50562227       3.70795977       3.27725525
C        0.19209531       8.03632040      24.19367626       3.95877620      -4.64756538       1.52633231
C        6.18783347       8.34837225       4.45816676      -0.37268229      -1.70314625       3.60723936
C        6.65231504       4.91511310      28.49203942       0.49643996       0.35759752      -2.40727119
C        8.43322479       1.15513496      25.03859827      -0.39347054      -0.43325004      -4.07984227
C        4.17576123       7.37654813       3.22464070      -1.84451694      -2.20148716      -4.23063884
C        6.00317898       9.66320839       5.28206116       2.38644914       1.75186063      -5.35127859
C        8.82937268       1.83834753       5.45841774      -6.98055328       2.74157238      -3.28838069
C        2.55524141       8.18214482      30.26380352      -1.31614768      -1.64745735       1.54464943
C        5.01025182       9.51090288      28.68426058       1.35718913       3.48885320      -0.78449536
C        9.42640036       7.04991948      24.58037155      -0.63774724      -1.46515316      -3.09242974
C        1.27038312       3.17854345      28.09567518       0.27594446       3.61091956       0.16677550
C        2.07243441       6.72278273       6.34720986      -4.73446838      -1.09486191       4.25850677
C        9.81482515       2.94096763      31.21089094      -2.23106166      -0.68607129       1.21681975
C        8.39714976       7.60321677       3.92302654      -0.10525870       0.79570776       1.61104566
C        5.25538139       4.28517189      28.79212097       5.56919090      -0.15684480       1.72698796
C        2.24175559       9.59930082       1.61562156      -4.72231252      -0.20471749       0.37700724
C        2.38485887       5.22717624      27.36308818       2.70261847      -0.87077018      -2.32613349
C        5.16989654       7.51993369       1.71975831      -2.65256139       0.46073065      -2.11261106
C        7.15570571       1.77274629      25.39494120       1.56411211       3.69750917       2.47213765
C       10.16715232       8.28805525      24.45517590       4.03413970      -6.43962824      -1.54840593
C        7.21894710       3.31082987      25.95089000       1.21242729       2.31440421      -1.47359781
C        9.31800590       4.37552320      29.02214177      -3.72033049      -3.06671051       3.93599808
C        9.93663343       2.39647740       5.74986295       6.99255793       1.94536443       2.77136885
C        5.16815771       7.15576216      25.74593336      -0.76415479       3.48195315       3.31960475
C       11.10261913       8.42838091      30.65744543       1.98051794      -0.57677130      -1.54198601
C        7.46922540       4.19667233      27.19521148      -0.14073289      -4.27739335      -1.58034238
C        3.89853110       2.89637912      27.21918046       3.50271081       0.11275060      -2.02996153
C        0.80640965       8.05570720       4.09068420       0.89393304       4.32030851      -0.78600733
C        9.90479255       0.65342667      28.59867945       2.54780427      -2.37861509       0.48847068
C        6.72639588      10.80855398      24.97169792      -0.34865654       1.59983814       0.66064974
C        7.71493081       7.04160924      29.03284333       1.90466182       1.57871283      -0.30489732
C        5.84457304       2.83732672      28.77403472      -2.47965253      -1.82568824       3.38428123
C        8.03253788      10.45672361       3.42340170      -2.15470275      -1.04980978       0.53111225
C        3.72373374       8.57664422      25.16961406       0.34427585       3.90507404      -2.28326742
C        7.72153610       4.31484488       0.14027796       2.36295973      -5.14889945       2.19200208
C       11.06882489      10.68445361      24.36471336      -4.82571556       1.26725590      -0.56619703
C        2.79168813       3.81785626      27.46284418      -6.18659847      -0.19569929       1.59214962
C        7.44389949       7.80345296       5.32774615       1.99099225       1.14556809      -2.17301932
C        3.61838787       9.74708990       1.85568680       4.42026882      -0.54697690      -2.98434999
C        9.71469576       0.38458582       0.37411627       0.52401009       0.57013017       1.71920535
C        4.97571238       8.58250429       7.26087840      -3.03454411       1.59424718      -1.45482150
C        9.43649459       1.48130068      30.88652750       3.33089602       6.08136941       1.25475857
C        1.53773355      10.60574342       5.23750264       1.33635365      -3.36418751      -0.66097721
C        3.11645375       2.40136644       5.62760866       0.19367309      -1.12868979       1.30657487
C        3.01950845      10.12829968      27.14871292       2.13317481       0.61632636      -4.06803155
C        2.20872915       6.76655829      24.57064002      -1.36590670      -1.12340341      -4.23579338
C        3.99695553       4.16749615      30.81102210      -0.10884897      -0.88614510       1.15842425
C        5.83612731       6.20491689      25.08381389       2.14640492      -4.13804676      -3.09038340
C       10.70867300       1.44644508       6.49912810       4.65881853      -0.10565642      -0.33761580
C        7.59259185       8.71208084      24.65390561       0.46980985      -6.08077344       0.02213480
C        6.65236020       2.46662894       1.30058286       2.96785412      -1.15245034      -3.08789933
C        3.39110952       6.56361224       6.93883050      -0.58256120       0.67522628       0.31885032
C        9.86609799       9.55907067      24.34881748       4.93616750       3.44556461       0.48985347
C        4.69764670       4.14367195       6.56565296      -3.08578084      -1.49054214       0.21623019
C        6.19892132      10.04039854       1.41204173      -1.84793476      -3.16107751       4.18479844
C        9.68101444       0.64692300       1.78205887      -1.60210333      -1.85451523       2.14028874
C        5.99792863       4.16873817       6.13127005       2.21197508       1.13519976      -0.28062366
C        5.15673113       9.80578098       6.33951225      -3.84591039      -0.99373040       0.94585637
C        3.28991877       0.16653229      27.97620580       1.82598662      -0.19877809      -1.18952046
C        4.04051656       2.28900880      25.85082109      -2.88194948       0.25133917      -3.38485996
C        0.10011810       4.27593578       6.02181382      -0.52711367       0.96177925       0.85896791
C        0.88897010       6.19268864       1.83143621       1.44688432       2.48239679      -2.84359674
C        0.10462324       5.43452582      24.24996893       4.71974244       4.25796793      -1.04256860
C        2.64885584       8.08452206      24.48405757      -2.86383003       0.48737092       2.35628556
C        9.59017762       8.87822923       3.85753428      -3.14361926      -1.99615553      -0.16053155
C        8.57867661       0.39961426       2.98194700       1.76357967      -2.87010744      -2.71597268
C        1.13527394       9.67934336       7.21860413       1.85718630       0.75672737      -2.43089522
C        1.31248759       8.76474249      24.55267893       1.05340279       5.89499928      -1.95586585
C        4.32654245       2.10744808       1.70367469       1.10054448       2.44965477      -2.89273429
C        4.73670258       6.80971283      27.09301478      -0.19243090      -0.02926476       1.97948412
C        2.33102295      10.08467091       6.36379414      -2.45357220      -3.09087363       3.79640771
C        5.70905738       5.70385219      31.12821988      -4.85705760       3.35183329      -0.03613665
C        3.44377116       1.00737976       1.75602468      -3.49038712       1.11761281      -2.01383380
C        7.87438358      10.73150358       5.95494476       3.30319960       4.04222738       0.76965298
C        7.35725166       9.34216883       2.69247313      -1.11916049       7.65955500      -4.57189669
C        2.01264808       0.79153928      28.14035886       3.38736525       4.67041840       4.81358772
C        4.72131283       6.70237973       0.32605316       0.87500762       2.00351513       0.02552043
C        9.34207850       4.31677566      24.41493555      -3.32347613       3.01147094      -0.58707524
C        9.68443564       7.56998709       6.13402366      -0.97210072      -1.39888387       1.97397903
C        1.61407261       2.14776856      28.96647492       1.78140273      -0.85599885      -0.46782224
C        3.34516607       7.09383053      30.74202524       1.93923800      -2.67819346       3.42497624
C        4.89084854       5.03054191      30.23429602      -1.91645669      -4.70111539      -4.09926455
C        1.57658619      10.16656518      26.92072604      -3.35842193       0.12231176       3.50003840
C        0.74762823       2.37966496       3.54036780       3.92142970      -1.68956619       1.36272077
C        2.45799126       5.02914181       5.70599284      -0.88794036      -4.50903422       1.48549628
C        1.48762369      10.32855845       2.76491200       0.60550018      -6.26895266      -0.27159185
C       11.03909545       9.27569818       7.15561517       2.45343303       2.75573547      -0.68224154
C        4.81242063       2.00001335      28.09752135       2.13517979       0.88671212       3.74503082
C        7.35895662       5.97644168      24.69280043      -4.07722939      -3.15736048       0.05640182
C       10.20419839       6.25856086      28.15390790      -0.07246572       2.19480201       2.90938219
C        0.56575136       9.14902344      26.87447781       1.00756406      -3.52615000       2.89861628
C        3.65257729      11.16131021      25.06037687      -0.86976068       0.77412455      -0.26523966
C        9.56572112       1.74959956      24.31173754       1.91755390      -1.03132305       2.72917923
C        5.45944525       0.01786250       1.54659341       3.40036619       2.05528943      -1.25336636
C        7.63779008       1.14115659      29.69530699      -4.78000949      -2.20873294      -1.73691231
C        5.14970807       8.67252815      25.41033642       1.62033594       0.54012592      -0.32895728
C        8.04640334       5.23358958       2.59744209      -0.92971708       0.28958932      -3.19384633
C        8.84399465       4.13900873       5.05942505       2.81812463       0.54820573       0.70209744
C        6.12799069       0.84077973      25.40820862      -3.42937545      -3.27476498      -0.57258970
C        6.41027923       7.06250905       2.21562821       2.24471049      -0.93994517      -1.10527997
C        0.44507219       4.43058984      28.18645063      -0.64596313      -1.25069444      -0.31966521
C        3.86550466       5.30956733       6.21131266      -0.92606041       2.28381508      -1.57542090
C        8.03410734       4.09190231      28.48036784      -2.23196731       2.14383565      -2.54820549
C        8.73161443       0.63364468       5.97215486      -4.14856712      -5.02168857       0.81798602
C        3.10350287       5.73380745      24.34199602       2.27453870      -6.02662281       2.87537972
C        0.95763122       4.32312125      24.10534151       2.96912660      -1.59998005       0.41329712
C        1.74001342       6.99261720       4.10920852      -0.43464149       1.00309427      -4.59026958
C       10.89620671       0.87642570      24.35310436      -4.13311903      -1.52489810      -1.41373668
C        6.81004028       3.05186872       3.73305833       2.71921091      -0.37120044       3.25502385
C        6.67726835       5.26838872       6.43529428       1.67184907       0.80738073       1.08939407
C        0.63236879       6.70297816       6.76106582      -1.68848561       2.00563936      -1.11717173
C        1.75888084       2.54140983       6.42305946       1.95969267       0.69546552      -2.47638202
C        1.66201457      11.17614670      31.06275892      -1.43510081       3.54614872      -3.45472166
C        1.41479616       0.67694601       5.21212557      -0.34322129      -2.82096508      -2.56295967
C        3.63752626       9.57797195      28.25331969      -1.93882137      -2.60396003       4.52969542
C        6.94003460       5.79980387       1.73036599       2.10286763       4.83574395       5.78343346
C       10.88362844       8.89243342       3.93156900       3.70314271      -3.03361999       0.46575992
C        5.59133648       1.57420377       1.18352290      -1.02217089      -4.60582267       3.58842992
C        4.38012996       6.64657917       5.35825496       2.47275124       2.05625199       3.17997999
C        7.15851719       8.24689923      29.42476423       1.52584171       6.63393026      -0.64163795
C        7.66916802       7.38812150       7.67805121       0.37001428       1.41995324      -0.80992689
