64
Lattice="7.527393 0.0 0.0 0.0 7.527393 0.0 0.0 0.0 22.527393" Properties=species:S:1:pos:R:3:force:R:3 energy=-442.0174001 config_type=Amorphous_Surfaces kpoints="5 5 1" kpoints_density="5.99123926 5.99123926 3.58602245" virial="-32.93064593 -2.62094411 5.9790154 -2.62094411 -52.46503943 5.16387069 5.9790154 5.16387069 12.61011103" cutoff=-1.0 nneightol=1.2 pbc="T T T"
C        3.65431595       0.09269984       2.81759115       0.08533638      -1.96734837      -0.28090447
C        3.34463900       6.30380021       3.53824245       1.04531839       0.91577825      -0.30890959
C        1.33255933       0.83201028       2.66823454      -1.52562258      -1.26200805       0.23105597
C        6.79456365       5.41382148      20.84786321       0.38964687       0.86803929       0.96439891
C        6.06375918       1.40844298       1.39174234      -1.38611278      -0.16629667      -1.17109585
C        6.01478596       0.00648861      19.37283710      -0.54425418      -0.68273244      -0.01575158
C        2.63258526       3.63470709      19.86733591      -0.23301366       0.52507032       0.74300209
C        4.15231322       7.38050345       1.28279987       0.64910690      -0.23662466       0.73567189
C        4.65233535       4.81232256      19.73374847       0.27573799       2.19065166      -1.70695355
C        5.37899224       5.05121944       0.46248738      -0.04372117      -0.09339590      -0.30815848
C        6.60480560       3.20001520      21.83535149      -0.11868929      -3.09467890       1.27980459
C        2.64033848       6.29810950      19.95706251       2.64848155       3.13626086       0.10957806
C        7.15112121       1.89840099       0.49607572      -1.82841054      -1.24205095      -2.56538988
C        1.01768095       1.25224957       1.16351732      -0.54509583       0.10728923      -0.89120563
C        2.70390731       1.09696698       2.77812316       1.66616277       0.41856326       1.20753283
C        1.07214164       6.13341767      22.23510008      -1.10893447      -0.79134428      -1.41292055
C        0.55500974       5.90466773      20.86225822      -0.52136234       1.68686530      -3.14755025
C        6.68392603       1.24497811      19.36551570      -1.19217990      -2.41508460      -1.18387444
C        3.56824774       2.40899911       0.93155276      -0.38317409      -0.18708269       2.21569794
C        4.73999937       5.69111559       3.87946488       0.98834384      -0.63372751       0.78885191
C        7.11267128       0.71422163      21.84087070       1.91517785       1.15576362       0.53629419
C        6.68370774       4.54488182      22.25819065      -1.17411826       4.10680449      -0.30262194
C        1.92171332       1.74330658      21.37435092       2.16080463       0.83870577      -1.25912854
C        0.60252265       1.26398478      20.83574348      -2.87061816       0.05691767       0.38195380
C        4.63702464       2.95137788       3.03376402      -0.32091533      -0.30418189      -1.75761756
C        2.81333302       5.26196386       1.43781086       1.50778513      -0.53819591       2.65621274
C        0.49872742       4.17575352       2.94216764      -3.82666875      -2.20309915      -1.46173466
C        3.03649012       6.50727317       0.91803632       1.15894761      -1.15151886      -1.15422627
C        2.51070924       5.97279063      22.16526516       1.62859958       0.80835647       1.65624047
C        0.86521361       7.25777684       3.60318893       0.91440761       1.84959334      -0.92415369
C        4.23179496       3.94467761       0.08736123       1.97299086      -1.08277812      -0.52239166
C        7.25097207       6.30735314       2.13368203       0.62769324      -1.67367311       2.31329742
C        5.94840941       6.39199868       4.08903721      -6.17290558      -2.93442782       1.70902832
C        3.25473182       5.03928852      19.68853599       2.57819191      -3.24119776       0.52915156
C        1.49155292       4.92649053       3.55678250       5.31668099       0.96770276       2.55736049
C        3.01703933       4.85155534       2.99175043      -2.42593017       1.30265718      -3.72745109
C        3.55473607       7.46040673      20.35786989      -0.40845767      -3.94106690      -1.14751336
C        5.09321476       3.04028392      21.46414511      -0.57841347      -0.96236933       1.38816069
C        1.50649480       3.66124115      22.39173304       4.29991794       1.17470551       0.39375244
C        7.09934780       3.17809543       2.77296439       0.92412181       0.90657818       1.06546980
C        4.26770815       4.25933016       3.34971070       2.19304904       0.40621633       2.09938708
C        1.46107451       3.21019224      20.81783420       1.38716657      -0.21805494       1.31305878
C        6.63627011       7.19511882       1.25968676       0.38872664       0.26918584      -1.31577287
C        0.36918852       5.12385878       1.80870186      -1.02233707       0.93202953      -1.31261839
C        5.68601954       0.40864711      21.53267343      -1.35590316       2.18783500      -2.37148913
C        5.00637876       7.21613530      20.46899752       0.93742922      -1.05852286       0.74793499
C        6.39674093       2.52890295      19.63818727      -0.07629001       1.33017270      -1.54088079
C        5.76999514       6.02217786      19.98321682      -1.21563758      -2.59134355      -1.01071632
C        5.38809285       6.41344422       0.95399004      -1.48626910      -0.51289456      -1.46719951
C        4.54363980       1.25290446       0.64171532       1.15539398       0.01205448       0.92649048
C        3.60262534       2.65584491      19.75902420      -0.40722690      -0.29112073       0.65831021
C        5.94490164       2.51308790       2.38605641       1.22730494       0.90203590       3.51566605
C        2.20000104       2.12174626       0.40157331      -5.39226485       0.44765862      -2.17424046
C        7.02499974       6.68620683       3.54153145       4.39407218       1.25568211      -1.56865900
C        0.32568771       7.38418435       0.28382262      -0.46021638       1.07713999       0.25006303
C        4.65754431       1.54193376      21.64357579       0.97183317      -0.37466650       1.09956670
C        0.53107263       4.81325596       0.34225868      -0.70234659      -0.88032968       1.33029909
C        2.85953616       4.47347697       0.13243854      -2.89516581       2.26480332      -1.69038092
C        4.97252807       3.34372066      19.85683814       0.82253563      -1.57824556       1.23980052
C        1.89065530       6.26976887       3.93030920      -2.42371838      -1.05892144       1.09359768
C        3.35705168       1.26982603      20.75468992      -0.77525385       3.88845739       0.07414246
C        3.39908464       2.28733386       2.40511459       1.66813157       2.12886821      -0.74505488
C        1.30826843       6.39643984      19.73088749      -2.70643038      -0.12936258       1.73584042
C        7.47747886       2.81336313      20.61657447       0.22856146      -0.62009631       0.89989173
