64
Lattice="7.527393 0.0 0.0 0.0 7.527393 0.0 0.0 0.0 22.527393" Properties=species:S:1:pos:R:3:force:R:3 energy=-418.21752181 config_type=Amorphous_Surfaces kpoints="5 5 1" kpoints_density="5.99123926 5.99123926 3.58602245" virial="-12.27177712 -6.97523825 23.447261 -6.97523825 -12.16201185 -0.82340036 23.447261 -0.82340036 0.94613325" cutoff=-1.0 nneightol=1.2 pbc="T T T"
C        5.42629437       4.56629725       0.23306841       0.11755732      -1.39137799      -0.98379614
C        1.28482060       4.75859203      20.48850624      -2.35078220       0.78966746      -2.42535092
C        7.34621618       5.21025067       2.03433622      -0.53160424       0.22911421       2.65906763
C        6.88322882       0.01723773       1.71938074      -3.58443438      -3.40536593       0.94406475
C        7.29122104       3.81467953       1.52609571      -2.02182677      -0.68396038       0.40262747
C        4.55697834       6.91126836      19.58576602       2.05322143      -1.13786946       2.42313444
C        6.54471443       5.35056127      19.67073935      -2.64811103       1.74381965       3.66304950
C        1.92181118       1.99159764      21.84981407      -0.54790722      -0.15729851       2.81001626
C        6.00758224       0.90967792       2.97314280      -2.98136468       1.16770415       1.57957615
C        5.46875640       3.06076596       3.69530344       2.35395663      -0.99676572      -2.00744079
C        1.78019833       7.08384889      19.65337073      -2.04752500       2.73895185      -1.54899083
C        6.90170857       2.38503942      22.16132286       0.18191554       2.45760452       0.66046786
C        6.99876677       1.57150889      21.01470109       1.06820587       1.30537781      -1.99918090
C        1.53980351       6.68096777      22.05877817      -0.27094598       1.36090494      -1.79288993
C        5.05376369       0.28498710      21.88615076      -0.43780421      -1.40966293      -0.86356942
C        0.26520511       2.79221116       2.56771731      -0.12608550      -0.50620288       1.51262633
C        6.53320504       0.17212137      21.20951798      -0.85684784      -2.98135598      -1.28578044
C        2.93353044       6.89394030       1.62080087      -0.81220870       2.14177096       0.91013796
C        4.65167294       2.13981954      21.21388830      -0.57597599      -1.69490038       0.05405707
C        2.64295801       4.25324803       0.08258542       0.50764900       1.35657519      -0.69967277
C        4.54071164       0.50254381       3.48003167       1.63041822       0.94060259      -1.74953872
C        0.23034575       5.13929746       3.49636403       1.81015305      -4.45777332      -1.46458985
C        5.17152223       5.80681162       1.03281339      -0.81937762      -0.24041716      -0.57740144
C        2.31565944       1.41154426      20.63637605       1.58040839      -0.94741512      -0.25277585
C        2.47380996       7.44846828      20.99068689       0.71767898       1.44785496      -1.72896495
C        4.00273639       5.38879290      19.61297911       1.89712071      -1.59183994      -2.18966423
C        0.26646971       2.07071807      19.83048109       2.77533658       2.55584997       0.11071421
C        5.23464695       4.22113617      19.67335253      -0.99459297       3.34132343      -0.41823699
C        2.91982305       4.79352666       1.39789232       1.77489821      -2.37885979       2.32925085
C        5.99727724       6.70584580      20.00358158      -2.56682302      -0.71625004      -3.33655529
C        6.78384465       4.23007872      21.86164095      -0.14946248       2.21803342       0.00446599
C        7.43432431       5.27214842      20.91904978      -1.72986238      -0.51631660      -0.08987955
C        1.07503969       3.41705252      19.81491466      -1.06334116      -2.08158037       0.51205846
C        4.50272842       3.46997763      20.78138488       2.40319915      -0.71162350       0.15786805
C        1.57191537       5.68772073      19.17522681       3.48577434       0.19127688       0.71656460
C        6.73971907       2.15675617       3.51686396      -6.08336293       0.98323380      -1.73049111
C        0.73209919       3.81390421       3.51120958       0.09448887       5.17486602       0.29963555
C        2.19551472       1.41021944       3.05685459       4.79857724       1.14930735       0.01274011
C        5.71192883       3.53522507       1.31773985       0.67683192       1.17779382      -0.32216780
C        2.09216361       1.53584410       0.73227544       1.30728626      -0.14364467      -2.16079814
C        3.38792904       4.04595868       2.54692453       1.70358075      -3.37869601      -1.92748576
C        0.26545351       3.54291806       0.15884065      -1.36188264      -1.85049665       1.01532145
C        3.67235159       2.11706423      20.16206179       0.18725697      -0.62283861      -0.30612436
C        1.43408128       1.12567646      19.42000946      -0.77216982      -3.33861350       2.43774039
C        6.32856534       6.19338089       1.69182974       4.28355300       0.29438467      -0.41924089
C        4.12687063       4.35137513      21.90194246       0.89266420       0.01255016       0.19315816
C        1.67552994       3.21936813      22.48634809      -0.62037101      -0.16460537      -1.44223173
C        0.66816904       0.21805352       1.77574428       1.29622526       1.70954634      -0.91412656
C        3.95633754       7.07883565      21.04648724       1.07180833      -0.29286126       0.70084997
C        1.72543655       7.34525267       0.82936850       1.79572961      -1.83636799       2.07978529
C        2.87408661       4.97789510      18.82127641      -3.83835289       1.30220463       0.73960890
C        3.70206221       5.55517840      21.14572041      -2.32033422       1.04100557      -0.65178661
C        4.20729330       2.05905061      18.82294344      -0.33426629       0.29054086       0.38235593
C        3.31705864       2.49719757       2.64962691      -1.96325397       1.55404961      -1.08027119
C        2.19894721       5.32380139      21.55427720       1.26462608      -0.23891303       1.54194943
C        4.68541072       1.50933263       0.07235799      -2.96087432       2.35727966      -0.84726009
C        3.79898492       5.89481437       1.40438021       1.86319681       0.88990928      -2.38703042
C        5.84526907       2.19244354       0.67726354       0.40149947      -1.19788115       0.05770449
C        5.94627163       1.04552478       1.54188741       1.82144111       0.41456742       2.60733994
C        0.07239094       6.69354604      21.65346532       0.25557698      -3.11607186      -1.39794633
C        1.13291028       1.59228450       2.07281301       0.82037182       0.53404488       1.08288019
C        3.32433010       0.40926436       2.49824283       0.64163517       1.95867804       1.76864306
C        4.98933674       3.87803760       2.56837060      -1.49493986      -2.75208706       3.67222540
C        3.51676790       1.61668830       1.28764326      -0.66715196       0.10951906       0.95955414
