64
Lattice="7.527393 0.0 0.0 0.0 7.527393 0.0 0.0 0.0 22.527393" Properties=species:S:1:pos:R:3:force:R:3 energy=-419.26163825 config_type=Amorphous_Surfaces kpoints="5 5 1" kpoints_density="5.99123926 5.99123926 3.58602245" virial="-14.26818036 -10.76576093 -10.46820958 -10.76576093 -40.00498284 -11.10433358 -10.46820958 -11.10433358 22.76218279" cutoff=-1.0 nneightol=1.2 pbc="T T T"
C        4.51083542       3.90588143      19.81103995       2.17726312       3.97443276      -0.12730118
C        0.49043976       7.51729124       2.46445174      -0.17788973       0.84110342       1.49153655
C        2.38021436       2.42767457      20.36674568       1.35223968      -0.61481091      -1.32618946
C        2.71687701       1.65759216      19.07187113       1.66686464      -3.02623449       0.05749427
C        5.34170906       6.41979734       2.41626565      -1.19910630       0.09373100       3.24287463
C        5.78730061       5.75728137       3.58512196       2.80499069      -0.84375988      -1.57458497
C        0.06524744       4.77963110      19.77769941       2.10677223      -3.63431603       0.03488722
C        6.46526279       3.82826648      21.74206555      -1.61015590      -0.02863016      -1.39640010
C        7.15176856       6.39028996      21.14650886       0.25707155       0.61163095       0.56154593
C        4.41807536       6.63782075       0.12209847      -1.47770276      -1.90504369       1.69829288
C        5.10488975       0.29943969       0.08012994       0.59111884       1.05179055      -2.35602300
C        1.61022227       1.81958166       3.09352919      -3.27768832       2.11204768       1.44823460
C        5.27954032       5.18948259      19.76370990      -1.77879733      -3.04459839       0.78581457
C        4.48433900       5.77893015       1.40111374      -0.51728443       0.86289631      -3.66364947
C        0.90621532       5.27241941       1.68468856      -1.67785942      -2.10535252       0.33868237
C        2.22291443       4.14517725      18.79424354      -2.70609707      -1.04375536       0.82632625
C        0.53477611       3.40802718      19.47864827       2.07058144       6.39767371      -0.64463031
C        3.35073619       3.69720704       1.52656879      -0.48054644      -0.35815288       2.98060891
C        2.71185624       0.15133824      19.28725554       0.67678464       3.57466949      -1.02894280
C        3.42553590       6.88319871       3.41242696       2.38947342       1.19806195      -0.23409656
C        0.36129228       0.99668705       3.43020108       3.47635215       1.32109543      -0.80960661
C        4.07326054       2.18542048       3.33290527       1.91322134       2.65249039      -1.01508509
C        0.54270245       3.77915024       1.75873610       2.40406285      -0.76845315       3.07989542
C        3.25017022       4.38277941       2.82110543      -1.51655451      -1.13667691       0.03893097
C        6.16470152       2.22039275       1.11521859      -0.41855596       1.55705217      -0.24787001
C        0.20310412       2.91696264      21.80858894      -0.21329131      -1.92159156       0.95871846
C        1.72134918       5.27272050      21.65022137      -2.55179235       0.01183479       0.88087518
C        4.44055968       3.61309595       3.30321416      -3.75913226      -3.02934001      -0.10750440
C        3.98430181       1.24853104       2.07459268       0.79149089      -0.06934196       3.97970439
C        6.48213921       5.08003430      20.76831899      -0.25058581      -0.78008564      -1.36706626
C        1.20111599       3.25618461       3.19201895       1.64851348      -1.10700488      -1.46486723
C        3.21818633       5.83595016       2.33633846       0.31517975      -0.92595778      -0.53838279
C        2.42394098       2.52021634       0.91997368       2.20726409       1.46451783      -0.62744633
C        2.48703559       1.33867157       1.87509008      -1.12178974       0.28758231       0.40954458
C        1.57989441       7.36349907      20.14440031      -2.61826325      -1.41357455      -1.48165364
C        0.83807735       2.39317653      20.54996097      -0.83282515      -1.05841170      -3.06934448
C        4.80879222       1.63839731      20.59663773      -0.80507490       1.83505345      -0.54294820
C        3.42758335       6.33369902      21.63080276       1.36121857       1.27979736      -1.85085335
C        0.97980311       2.88795207       0.61610167       0.19799652       0.28798770       0.07834445
C        3.51164927       2.38341350      22.42577193      -0.34334598      -2.40285317       0.11949836
C        2.92459542       3.90747723      20.08630217       1.89380008      -0.22639013      -2.76863662
C        1.00115832       5.93655376      20.51664296      -1.83647675       1.16230129      -0.84386630
C        4.60146523       0.10566954       3.00501906      -3.23153769       0.25611786      -1.41855335
C        7.39360864       1.77820358       0.36715145       1.38666378       0.51063467       1.26609746
C        0.42792476       0.44326559       0.63824610      -1.55458520      -2.32766480      -2.78011090
C        2.76033265       0.04995178      21.04554109       2.11741369       0.33839832      -0.00595270
C        3.30871076       1.52860275      21.20640920       0.17418406       0.39547361       0.64700115
C        2.08575780       6.24184224       1.40742141       0.95048157       0.42144442       0.85063931
C        6.66534090       3.44922460       1.78315579      -1.90352924       1.19389808      -0.09090365
C        5.07106164       3.21246551      20.99440391       0.72057778       0.20510520      -0.16033544
C        1.63799835       0.19605848       1.43330538       0.84383450      -1.69940974       0.69231662
C        5.60541622       0.65804470      21.24188985      -1.92405165       0.85536329       1.05055549
C        7.49093031       6.68972965       0.04516742       2.51657885       1.70578170      -0.87124980
C        6.65961255       0.15635901      20.56994277       4.74905637      -0.65581549      -1.38209603
C        5.95951231       3.89980682       0.63838126      -0.67396818      -1.05727803       1.09917295
C        3.03169517       4.80010561      21.33598677       0.05811102      -0.90065907       0.04275210
C        4.92643031       1.32310492      19.01956253      -2.46487488       1.13580739       1.30233141
C        4.76185892       1.56485468       0.82923334       1.50557927      -0.34024037       0.89390231
C        0.35950829       0.81696302      19.90970993      -0.80100467      -0.23726622       4.48516195
C        1.04951430       5.71464622       0.31928074      -0.02347259       0.33724012      -0.75864842
C        7.12799705       5.54618316       3.61014989      -2.58266805      -0.57543663       1.34242287
C        4.01135526       3.76647411      22.02165303      -0.88367825      -0.05057754      -0.72225942
C        4.49363533       4.28328233       0.80625540       0.63791618      -0.06865758      -0.33297690
C        0.28056852       6.13965035       2.61452923      -0.74847102      -0.57567404       0.92587215
