64
Lattice="7.527393 0.0 0.0 0.0 7.527393 0.0 0.0 0.0 22.527393" Properties=species:S:1:pos:R:3:force:R:3 energy=-422.4576831 config_type=Amorphous_Surfaces kpoints="5 5 1" kpoints_density="5.99123926 5.99123926 3.58602245" virial="-22.29885788 -1.41692244 -15.04757129 -1.41692244 -2.5614267 8.99441172 -15.04757129 8.99441172 9.42610916" cutoff=-1.0 nneightol=1.2 pbc="T T T"
C        0.11986621       6.81326170      19.97832837       0.81793514      -2.11245298      -3.59951895
C        7.35830517       1.47393130      21.04054001      -0.51270588      -0.07191774      -2.84999368
C        0.04415569       1.02982264       1.56452744       3.07980457       1.39001209       0.44099662
C        0.99827533       1.85386140       2.36913834      -0.36902001       2.21964742      -0.81456591
C        1.66137091       2.92278885      19.21298272       1.49172453      -3.67637746      -0.84362362
C        5.00241182       6.53644935      20.49046612       0.69898723      -0.32243462      -1.02956640
C        0.82430223       2.37856586      21.55416457       1.92794069       0.59115858       2.32429697
C        5.25320197       1.33787367      19.74176822      -0.46575954      -2.76442240       3.71132494
C        2.10706785       6.29968273       3.40744841      -0.15459110      -0.93804441      -0.07586738
C        5.19051384       2.54847417       2.42068101      -0.52861966       0.87338379       2.91484062
C        3.83403246       2.58713486      22.14438226       0.26249436      -0.20807050      -0.33845241
C        0.61853341       3.99057213      21.62316597      -0.07268282      -2.42499380       0.09037392
C        2.60158746       4.99724803       3.12889720      -1.62564589       0.19673778      -1.47848326
C        2.79847395       6.58815501      21.74871113      -1.88739782       1.29273520       0.60913698
C        3.26383997       2.89088023      20.74270534       0.06714126       0.58986344       1.68767694
C        4.40777035       5.44180080       1.27358616       0.90456040       0.86394845      -0.56771161
C        2.84581372       1.97587292      19.53014589      -0.45201809       1.15654476       1.98884283
C        1.45600857       4.06573314       3.13250158      -4.37408482       4.15416815       1.42656936
C        6.88103082       5.08091500       2.04445102      -0.57501236      -1.55276420       1.51437317
C        5.36767104       0.38314430      20.82486275      -1.71476901       3.49455865      -3.42074026
C        4.98725918       6.00335938       0.13189789      -2.83782995      -0.36818625       1.20703192
C        1.02928819       3.30302758       1.95163817       0.22379523      -1.04084238      -0.50068887
C        3.34618965       1.05936013       3.10558134       2.34924227      -1.11268099      -2.33583581
C        0.78554368       6.14005683      18.94810564      -1.79549634      -0.99427834       2.43741215
C        7.22985021       6.28734533       1.23272147      -1.55369837       0.19043682      -0.80604971
C        4.45948354       3.95067694       2.71738931       0.55969589      -1.45234769      -1.55684876
C        0.57915009       1.91207073      18.83702306      -0.63785911       3.82322225       0.06551788
C        3.25735136       4.57463760       1.80480462       2.39342745      -0.96347862       0.73398317
C        1.80729695       1.34996266      22.34435793      -1.08617834       0.91209778       0.52270275
C        4.27638724       6.20461928      19.18160206      -4.20238943      -1.00144522       0.31113581
C        1.63941350       4.50216386      22.46046412      -1.09816387      -0.59943497       0.09180818
C        1.33056457       0.49464758       0.97913061      -0.71699188      -0.66394607      -0.43460257
C        6.71628629       7.50478071       2.01248465       2.00671512      -0.37096535      -1.05049454
C        7.01647873       2.81586223      19.07259201       0.08764856       1.91312946       1.69602046
C        2.20748327       0.66784536      19.98799262       1.89208497      -0.70625981      -2.16804677
C        1.04658614       6.59385325       0.82441247       2.01720034       1.06549988       0.71933704
C        5.86875453       2.76215428       0.84457449       3.26375786      -2.42617321       1.30648506
C        2.47151411       1.37137057       1.94438434       0.56898997      -0.80086862       3.05514487
C        5.39061453       5.17247821       2.35048566      -0.50873040      -1.28167791       2.11097687
C        4.25433198       3.88195184      20.25176587       0.68812272       1.82462723      -3.33838244
C        7.03242927       4.18940821      19.42095561       3.04851980       0.17353514      -3.27741624
C        7.06046881       3.65434606       1.64335079       0.39228012      -0.46138481       0.54718133
C        6.55400323       6.06722178      20.87482850       0.89898514      -2.08037008       0.52616358
C        6.42249215       6.52617446      22.41000276      -0.68367376      -0.23902263      -1.32517532
C        5.63514189       3.50333903      20.96554632      -1.03385023       1.05920483       0.52635563
C        2.82069481       2.26442047       0.63844885      -1.06175894      -0.33076410      -0.58417462
C        6.56701056       1.46553073       0.63392084      -2.01289638       0.43128297      -0.85150281
C        6.21769436       2.29854967      20.21673577      -0.24852396      -0.52224325      -0.60468768
C        0.60559382       0.74378170      19.87452215       0.16644532      -0.53156261      -0.67332161
C        5.54226139       0.04523210       2.64627033      -1.57351399       0.97933754       3.84767995
C        2.95558570       7.30281323      18.86020375       0.51219631      -2.92495460       1.35881044
C        1.85778317       5.87182571       0.01856257       0.62522120       2.25190019       0.22321775
C        6.51511672       2.86758295       2.79740661       1.65546956       1.24441590       1.93832937
C        4.84455486       1.23438707       3.22630564      -4.52003641       0.15071983      -4.47001122
C        6.83688266       4.48914147      20.86894885      -0.00465411       1.46435585      -1.96566782
C        6.46576713       0.53645472      21.92505557      -1.70653054       1.23093442       1.06295489
C        0.22220864       4.98804955       3.42772306       2.78689873      -0.61268081      -0.63658212
C        2.20147641       3.70133958       0.98847948       1.31883490      -0.99105773       0.13926467
C        2.29763133       0.36925626      21.36076690       2.68523498      -0.72006938       0.89246153
C        5.06102010       6.33805738       3.02560910      -2.09325073       0.81049659       1.11083905
C        3.89943798       4.59158929      19.01877407       1.73793729       3.33977103       3.13580955
C        4.10373895       6.18601157      21.57651174       2.36383630      -0.98963191      -0.56859136
C        1.75493640       3.26472067      20.75610914      -0.60543640      -1.38296703      -3.51045469
C        5.06856255       3.10154937      22.27204500      -0.77935809      -0.04695352      -0.59799777
