64
Lattice="7.527393 0.0 0.0 0.0 7.527393 0.0 0.0 0.0 22.527393" Properties=species:S:1:pos:R:3:force:R:3 energy=-419.85943211 config_type=Amorphous_Surfaces kpoints="5 5 1" kpoints_density="5.99123926 5.99123926 3.58602245" virial="20.80820602 -14.08950639 -12.35853904 -14.08950639 -10.65435699 -12.83862944 -12.35853904 -12.83862944 8.17149722" cutoff=-1.0 nneightol=1.2 pbc="T T T"
C        3.63168861       1.83778289       3.11114561      -1.73483626       3.69553804      -0.33682315
C        3.80485628       1.80585169       1.59516470      -0.51800049      -0.71819484      -1.47130635
C        5.01054893       1.71247438      20.45043495       0.15092515      -1.77090250      -1.35967424
C        0.24722217       1.18196630      20.70355274       0.43984180       0.00405286      -1.14036475
C        3.94154621       5.50584386       3.10285553      -3.78582041       3.86634469       2.09836844
C        6.10106494       7.30428860      19.87837433      -2.85938101       0.13242711      -1.60892514
C        2.94939065       7.41601017      20.98314021      -0.09646607      -1.11829281      -0.17243206
C        3.07914033       4.23495647       1.21352813       0.77705925       1.07926764      -0.41360340
C        1.91894324       2.52210572      22.52349576      -2.01683435      -1.11655530       1.32830349
C        1.79922758       3.17498662      19.24136724      -2.07179584      -4.46663251      -0.14880416
C        4.14653218       0.56662451      21.19724055      -1.48875183       2.80553585      -0.98602190
C        4.87257935       1.66245485      18.92145573       0.99334277      -4.24591880       1.18115209
C        7.14632626       4.21885537       0.10955071      -1.23307894      -2.05381614      -0.70163764
C        7.15027814       2.30846325       3.25153632      -3.24810060      -1.36520821      -3.05709771
C        4.79260832       0.37291458      22.39547259       2.51471340       0.55027614       2.53494828
C        6.57409384       3.59448823      21.53422782       1.08805583      -0.09044644       0.27998591
C        0.95173346       4.74215973      22.23167591      -0.74838086       1.42222043       2.21761721
C        6.77457843       6.17533020      20.25956035       0.37645678      -2.63992640      -1.61186740
C        6.90292048       4.10337011       1.57069995      -1.30225357       0.95477940      -1.84046043
C        0.47786902       2.33806848      19.58069736       3.93637135       3.11281622       1.97563245
C        3.60490614       6.73603817       0.67886299       1.53312175      -0.32940059       2.08321438
C        6.83666436       4.79878831      19.57470507      -4.16082825       0.37988606       1.04935285
C        2.68410274       4.42545973       2.60979848       3.01942183      -2.90489072       4.56009651
C        6.30294962       0.89938044      20.84482202       0.93199662       1.62335783      -0.62101073
C        4.20436514       3.28847713      22.03239859       1.95740577       0.49926678      -2.19697585
C        4.08983586       4.46281065      19.22888706       3.15406289       0.90938919       2.54244982
C        0.32351230       7.18324812      20.12779763       3.62082538      -0.29194622      -1.47061587
C        3.81852603       6.96573657       3.75229774       0.96401880      -5.03985885      -2.76114010
C        1.20464634       6.06875737       0.27891165       2.63322767      -1.32038116      -4.46069844
C        5.48199708       3.93144445      19.52633876      -4.20518442       3.30897607      -0.63481919
C        6.01714203       6.19130332       2.05328176      -1.43269434       4.08377794       2.24091896
C        0.86976015       0.11699074       1.96013099       0.91571489       0.70070564      -0.12511697
C        5.69414913       2.85974693       3.45808999       1.53018862      -0.40870264      -3.08206330
C        0.64265870       6.32935571       1.39153959      -0.87122547       1.19270292       1.90410675
C        2.83404841       3.27222548      21.60814020       1.58239369       0.19077618       0.34698540
C        1.67654613       0.55866053       0.62891976       0.65037272       2.97911793       0.17386854
C        7.27785992       5.55298793       2.13771443      -2.36497436      -1.78113370       0.66123976
C        2.52416822       1.67212003       0.94475381      -0.06464477       0.06830617      -0.15595137
C        3.14395871       3.17228429       3.49156570      -1.04431287      -0.46078368       0.13528476
C        3.92077061       5.45008846       1.04849245       0.13545430       1.36462828      -0.13636957
C        2.06794046       3.94436146       0.21045091       0.25931567      -1.09712517       0.83531042
C        7.04390855       1.31286767       0.63698456      -0.91499597       0.42325559      -2.45222995
C        1.72733345       0.03899942       3.11610164       0.30114303       0.26783927       0.22475925
C        4.46852394       0.44036002       1.30271408      -0.16052452      -0.30790508       0.23539029
C        4.30951529       3.23729838       1.00620854      -0.42805459      -2.62139148       0.28764203
C        3.18028591       5.02408318      20.17654690       2.97208714       1.33512911      -5.48002706
C        5.73213988       0.09279770       2.23805144       0.18616716      -3.00425085      -1.86636329
C        0.39152982       5.34879986       3.52028812       2.84186792      -2.18940715       0.08301068
C        2.76429206       6.46712959      19.89184571      -3.83460258       0.09110929      -0.19707542
C        5.40545102       3.71366192       1.94807884       2.35171879       2.65506240       1.66293269
C        0.75187365       1.51911071      22.25683901       0.64400636      -0.63605947       0.17262777
C        1.23690122       6.58437626      19.16303949       3.01870684      -0.34977436       2.93676969
C        7.51980539       3.70597645      20.32923757      -1.75090382      -0.39113973       0.29927525
C        1.28409044       4.16148911       3.11049232      -0.25611753       3.21912451       0.33678380
C        2.39295823       6.99125443      22.40592530      -1.62976460      -0.01563739       0.53295944
C        5.28894956       3.21029009      20.98194626      -1.53946921      -0.82834459       1.52164855
C        0.27034632       3.34475192       2.44449247       1.31059206      -1.56676259       2.59639110
C        6.17043739       0.72505355      22.26409283      -1.20959574      -0.41739536       0.74900065
C        4.96433827       5.22089440       2.09412393      -1.08586264      -0.35839126       0.78293722
C        5.19627230       0.12128888      18.77775349      -0.45665448       4.09151694       0.65393094
C        2.98284991       0.50632256       3.30808008       0.07285846      -0.76326881       2.88310905
C        2.23367860       3.95745160      20.45777888       1.37946305      -0.86042247      -2.50134383
C        1.01518186       4.42878684      20.87694608       1.25306020       1.23760668      -0.90014980
C        7.05227148       1.00948362       2.12595513      -0.98184756      -0.71452588      -0.21703533
