64
Lattice="7.527393 0.0 0.0 0.0 7.527393 0.0 0.0 0.0 22.527393" Properties=species:S:1:pos:R:3:force:R:3 energy=-450.72360309 config_type=Amorphous_Surfaces kpoints="5 5 1" kpoints_density="5.99123926 5.99123926 3.58602245" virial="-49.02037691 21.5064846 -2.71590116 21.5064846 -34.83179054 -5.02384539 -2.71590116 -5.02384539 5.2263445" cutoff=-1.0 nneightol=1.2 pbc="T T T"
C        4.17485776       7.22135931       2.46460943      -0.63754573       0.34866756       1.37953425
C        4.11792809       6.15942482       3.43650875      -0.51345581       0.70845900      -1.15850195
C        1.72901959       0.87488631       2.58652768       0.74417947      -0.52155124      -1.00223673
C        7.24389632       4.93180487      20.75764101      -0.50005318       0.09931838      -1.77053175
C        6.53982162       1.03043988       1.12801415      -2.82411366      -1.79102693       2.66820733
C        6.27207225       7.46584903      18.73396024      -0.04683192       1.27447468       0.10283583
C        3.07014509       3.21179557      20.01128595       2.97734977      -2.07689615      -1.89236567
C        4.73129771       6.93117078       1.05908033      -0.83114035      -0.76420362      -2.08759025
C        5.11021914       4.32968118      19.63325377       1.17680623      -0.08059267       0.34832882
C        5.85625153       4.70263339       0.03642679      -0.17274433      -1.63534436       0.14342147
C        7.21591701       2.66060975      21.83555423      -2.39911600       1.30206683      -1.83023948
C        3.14124132       5.98600874      20.07123134       2.94339207      -1.14390449       1.57204523
C        7.49200673       1.31788844       0.13649347       3.19075766       2.16567830      -1.75015052
C        1.31736905       0.82547650       0.87800514       0.36463845       0.23543730      -0.60213451
C        3.31242929       0.89989983       2.28017766      -0.93068586      -1.71323601       2.63284367
C        1.56071461       5.60199878      22.12162960      -1.29989635      -0.38984287       0.09023968
C        0.88889478       5.52564843      20.69224398      -1.06348549      -1.43309910       2.11033239
C        6.65321427       1.12022663      18.55051968       1.20431467       0.54532804       1.71852380
C        3.65116197       1.52905439       1.05998142       3.41127180       2.21878796      -0.92518188
C        5.37040348       5.32413260       3.55730063      -0.20467416       0.27061559      -0.62862013
C        0.13746525       0.17370212      21.60347703       1.64740392       1.11647141      -0.78445615
C        7.25786717       4.17231350      22.11613291      -2.46268505      -1.01799332      -0.32599519
C        2.51019738       1.13177365      21.27887983       1.24340261       1.31188418      -2.96038043
C        1.51793644       0.17206115      20.69706485      -1.84592899      -2.03518439       0.28699591
C        5.65913922       2.76387052       2.54811848       0.19761458      -0.92004562       0.29112246
C        3.62271596       4.65962940       1.10140930      -0.44247206       0.68688958       1.46850033
C        1.11598870       3.49028653       2.72333654       2.62807039       3.44061309       0.46626132
C        3.63174130       5.95105905       0.62741042       1.15219444       0.29133229      -0.39896965
C        3.02717873       5.45521462      21.80631368       0.39655659       1.72608240       1.63159572
C        1.55202047       6.96119003       3.48446957      -1.86672868      -0.68097311       0.04673726
C        4.86140117       3.72250661      22.11448841       3.35465868       1.74215425       1.82023147
C        7.44598424       5.52549789       2.11291177      -3.49575102       3.89660002       0.44606907
C        6.78333278       5.83764382       3.41461212       1.27730264       1.31146075       1.39949167
C        3.69398531       4.47419207      19.72097543      -1.82177992       2.76005042      -0.73333502
C        2.46044884       4.27487423       3.12398622      -0.49735356       0.65083242      -0.08363883
C        3.80312498       3.81709583       2.38623663      -2.47192777       3.28545998       1.27620023
C        4.22428262       7.07591502      20.11326746      -2.53750992      -1.08467978      -1.11926420
C        5.66486757       2.61515182      21.46815498       1.31160147      -1.91939525      -0.40461851
C        2.06137657       3.17758357      22.26907138       2.59303856       0.49239250      -0.19118212
C        0.76161410       2.22182295       2.72407994      -1.15634811      -4.41145209      -0.11467172
C        5.10465640       4.04736631       3.10835221       1.00570537      -0.55265729      -0.27531507
C        1.97448035       2.54820319      20.77809588      -1.97127996       2.30740665      -0.35973581
C        7.06617458       6.61718064       1.11314607       3.73132603       0.18944746      -0.19853825
C        0.44248274       4.39761590       1.78079042       3.93730160      -1.93365707      -1.04400436
C        6.27858345       7.38565219      21.27514028      -2.29805235       0.12432198      -1.38102737
C        5.63107710       6.72641064      19.92937635       2.21682675       0.78840385       0.32177834
C        6.96564624       2.21863887      19.46116701      -0.04581718       0.82454628       0.55640156
C        6.02028848       5.30417748      19.90488907       0.51296949      -1.22457215       1.35491102
C        5.89819417       6.13999661       0.46744340      -0.79853840       0.01008640      -1.70653918
C        4.96219296       0.85184496       0.51342181       0.17256979      -1.62252836       1.41716393
C        4.16574209       2.28000218      19.93095326      -0.49763778      -0.35598246      -1.32976988
C        6.82568942       1.90887159       2.28071832      -1.21269373       2.10854057       0.86215966
C        2.42973708       1.74290763       0.18348562      -0.66301670      -2.85130476       1.68426400
C        0.25487753       6.66559683       3.91618453       0.75031677      -1.45644496      -1.53004825
C        0.80427936       6.94846873       0.16845984       0.66117149      -2.06380292       2.02660476
C        5.29724475       1.04173097      21.61505611      -2.32513566       0.47164590      -0.58609023
C        1.05937518       4.31550710       0.29024293      -1.27868904       0.47835298       0.05499091
C        3.41385338       4.05269570      22.29272515      -1.35587219      -0.87049159       0.61654827
C        5.57761756       2.92171243      19.91486871      -1.75636921      -1.87630769       0.21772858
C        2.65242747       5.67076904       3.48066244       0.27018862       0.74254761       0.25645653
C        4.01448665       0.97042398      20.63056398      -0.86297162      -1.63470165       1.20681022
C        4.26239381       2.53320862       2.04787519      -0.16747885      -3.66228322      -0.78848224
C        1.70227476       6.40425327      20.07087090       2.40835447       6.07107277      -0.97534353
C        0.45798164       2.59891523      20.46537061      -2.22550382      -2.27327430      -1.53637681
