64
Lattice="7.527393 0.0 0.0 0.0 7.527393 0.0 0.0 0.0 22.527393" Properties=species:S:1:pos:R:3:force:R:3 energy=-424.71938615 config_type=Amorphous_Surfaces kpoints="5 5 1" kpoints_density="5.99123926 5.99123926 3.58602245" virial="-38.07869085 25.22349733 4.32022813 25.22349733 29.9897656 4.30817632 4.32022813 4.30817632 7.04650772" cutoff=-1.0 nneightol=1.2 pbc="T T T"
C        3.91142159       1.86940547       0.44392481      -1.02135704      -0.57672236       0.09793963
C        7.40931079       7.24218008      19.79655484      -1.69350040      -1.62631187      -2.56706649
C        4.98366861       3.78441941       1.48628981      -1.69909260      -2.03264514       0.35516331
C        1.34175027       2.88998447       1.84895831       1.38584205      -1.57359772       1.80865514
C        1.27420698       5.03242354       0.91571600      -0.92802292      -0.13398608       1.46040755
C        0.88011784       6.29203490      19.53742224       1.52221088      -2.68072502       0.20703788
C        1.93687349       2.21852596       2.97426917       0.80282866      -0.05440063      -1.60432634
C        0.56548034       2.13255560       0.90699790      -0.63569873       1.11047696       0.54253468
C        4.46959283       6.31348797      19.49556634       0.08236161       0.54716998      -2.87659789
C        1.37591711       0.92040445      21.45348965      -0.55539495      -1.51496069       1.40761354
C        3.72434329       0.74909604      20.70384559       0.65248195      -0.07029285       0.68207313
C        4.89824776       2.66320670       2.51070048       0.72111223       1.61903552       1.46462685
C        2.26716044       1.01646904      20.25487465       0.47013150       0.22052819      -2.60782422
C        2.40831412       0.19621655       1.64954583      -1.33026283      -0.52608647      -0.58637963
C        5.74179752       2.70863451       3.58836590       0.89110153       1.22220067       0.11410234
C        1.76032602       6.17575926      22.19671340      -0.52753019       0.59730841       1.07612027
C        6.61133185       3.74663943       3.23644297       1.08199559      -1.38776463       0.30546974
C        6.21575230       4.43654005       2.07110093       0.55674424       0.02602082      -1.12084999
C        3.24020395       7.02399107      20.12430588       0.58807496      -0.06223645      -0.56789530
C        1.63126886       5.73635522       2.26853100       0.24540879      -1.58611104       2.55294129
C        2.21576340       3.56872949      20.28048829       0.51284397       0.91464802      -1.72877655
C        1.15942176       7.16636418       2.22789159      -0.77033300       1.81932593       0.43279346
C        6.05370258       7.09118058       2.82374113       1.86750537       2.49444139      -3.49436601
C        2.66227330       2.72439688      22.48294645      -0.14611237      -0.63621484       2.39513559
C        7.46712869       3.93165522      20.54223407      -0.23295219       0.11993638      -2.32611091
C        3.76561599       4.54298492      21.36202843       1.13362151       0.48897391       1.87346799
C        3.15144846       3.22846875      21.28883693       2.30097115       1.02365158      -1.21309499
C        1.31922079       2.22889118      22.09700716      -2.90505411       1.42396460       1.17184796
C        5.13932757       2.77616276       0.21421298       0.39681386       0.73916459      -1.13333008
C        4.27491940       6.68962427       0.25715019      -0.89546796       0.40373538      -0.79208207
C        7.33913290       0.49339050       2.52478010      -0.54503943      -2.90879715      -2.64963158
C        6.67028640       5.65450235      22.34602496       0.78811327       0.95352571      -1.18167736
C        5.70608757       7.09093970      19.41991935      -1.06336954      -0.46738038       2.73631033
C        6.36830244       4.48688326      21.16248079      -2.59309786      -0.69595687       2.30100531
C        0.30190868       6.54718341      22.08891982      -0.98683103      -1.23319955      -0.82452296
C        5.12943658       3.77887925      21.50377079       0.14575869       1.01592993      -0.47874794
C        0.99259215       3.34573800      21.19284771      -0.10086343       1.01121088      -1.23967660
C        0.58752055       5.42558680       3.36457878      -2.21892923      -0.85917711      -1.24171993
C        3.61694997       0.52188168      22.23124789       0.33628215      -0.80001444      -0.62268552
C        2.87233273       1.34612369       2.35575707      -3.74125760       2.01182088       1.92031909
C        2.88613044       4.90889902      20.11545261       0.54542027      -0.99029098      -0.21074196
C        6.15057260       0.51613828      21.67693886      -1.24502477       0.38178659       0.91049025
C        0.03381305       0.15192537      21.23249592       0.55148738      -0.28302798       1.89929936
C        2.09667252       6.11744454      20.50229301       0.54576269      -0.46558993      -2.17440297
C        6.98581966       1.37703869       1.33242771       4.35883659      -0.17274665       1.14024262
C        1.57554357       3.08311479      19.08002605      -2.74270212      -3.60612337      -0.05916475
C        5.66015542       6.70519092      22.33226072      -0.76260639       1.14376082      -0.39321214
C        2.21868403       3.79324904       1.03565184       0.62715042      -0.80456629       0.09932834
C        3.76506649       6.81083035       1.77087836      -1.04731312      -0.34070387       1.09557052
C        0.28202131       3.98312001      19.00537027       0.72213991      -0.24429441       1.47915003
C        6.06309677       1.58992842       0.26034908       0.86159859      -0.51554152      -1.21214707
C        4.84972618       0.13786420       2.19049611       1.82157223      -1.24521671       3.39487744
C        2.17107327       0.11455187       0.01266039       1.43117210       0.49328110       0.04323857
C        6.79056661       5.77278780       2.46571327      -0.90802226       1.63418512       0.85747917
C        5.37278966       0.77425259      20.28605256      -0.04339200       1.13644080      -0.29154344
C        3.72082047       5.28484713      18.81240062       0.11916870       0.18950751       2.26473492
C        6.22598202       1.72217719      19.45587307       2.65715251      -0.37100063      -1.68610440
C        3.43335686       5.43283568       0.04998829       3.13894928      -1.87871963      -2.68647195
C        1.39180744       1.57382733      19.17515923      -0.43579881       3.60703431      -0.97816213
C        0.02855893       1.02149734      19.01025871      -1.82165655       2.37995740       2.66131696
C        3.54778076       4.46826801       1.31420305      -0.25438314       2.88278198       1.28903342
C        3.25936117       5.50947959       2.39695967      -1.68120907       1.48931301      -1.47266757
C        4.21789187       1.53740227       2.01090774       1.18392456      -1.23070281       0.00626707
C        7.18144907       5.17460846       1.12130099       0.48573644      -1.52601232      -0.02461303
