64
Lattice="7.527393 0.0 0.0 0.0 7.527393 0.0 0.0 0.0 22.527393" Properties=species:S:1:pos:R:3:force:R:3 energy=-411.20389601 config_type=Amorphous_Surfaces kpoints="5 5 1" kpoints_density="5.99123926 5.99123926 3.58602245" virial="-25.81986158 2.91945624 15.39032115 2.91945624 -21.74988557 -6.38711499 15.39032115 -6.38711499 -28.75753674" cutoff=-1.0 nneightol=1.2 pbc="T T T"
C        4.93383727       6.23006187       0.27886660       1.58640478      -0.28464784      -0.83163709
C        3.99891248       0.78026698       1.76299378      -1.08585633      -0.48061184      -0.11711989
C        3.04480036       2.86833568       2.41119698       3.69567734       0.31780628       7.10047288
C        7.39093642       3.60715684       2.53800368       1.59940460       0.29711881       2.26851090
C        0.80732795       3.02379893      19.57475013      -0.76541987      -5.89555975      -1.68777041
C        0.82388822       0.38058499      19.56294577      -0.72539035       3.40402232      -4.33925220
C        6.05363483       2.06730816       3.05568317       0.53603593      -0.12963801      -1.04543490
C        0.62445747       0.23483961      21.09812002       0.39310555       1.07529732       1.24778559
C        4.54142674       2.60245311      20.06116160      -1.51376802      -0.15126944      -0.39989802
C        0.75895693       4.11082223      21.27836170      -0.60373513      -1.45465728      -1.28294247
C        7.35740941       3.90855365       1.16624314       1.16351669      -2.32814261      -3.24822319
C        1.31270207       6.51562858      21.18264280      -0.02077237      -2.66587759       1.21766293
C        5.11261285       1.50530547      19.07946286       0.59258093      -0.14841355       3.04596060
C        5.87504744       3.83064513       2.63232587      -1.09469789      -0.63822637       4.35280795
C        5.65126557       3.77858568      22.12293619      -1.72564864      -1.68829979       0.48000288
C        0.62260573       4.08577106       3.60641035       0.92831541       0.17622337       0.59402047
C        1.94010274       3.33497383      20.44496079       2.12705992      -0.42490004      -0.53319642
C        5.39982053       0.06706154      22.30151083       0.50240025       0.87089670      -0.09542462
C        2.75223318       1.96607225       3.61132132       2.67178871      -2.44124417      -0.18881818
C        5.06039533       4.69972029       3.57532254      -2.03757304       0.97376795      -3.91578371
C        4.25595789       3.10580988      22.51437217      -0.12734085       2.37824442      -0.65049771
C        2.30798902       2.10243097      21.24200248       0.59676800       0.32566444       0.76968077
C        3.85728458       1.96391189      21.33112085      -1.42085485      -0.02637394      -1.30722316
C        3.50538648       5.75104869       0.20065149      -1.12718881       1.00186897      -1.53159980
C        3.39648016       4.32432168       0.09925569      -2.96722686      -2.54232407       2.00609892
C        0.15361151       6.76165389      18.85015653      -1.89141094      -0.77110018       2.16471671
C        7.46270258       5.26036052       0.64633343       0.78057780       1.60696283       0.63086345
C        0.65337771       5.37293269      19.16035873      -0.07707442       2.51051561      -0.68762148
C        6.39485156       5.64261659      20.63975516      -1.07633476       0.15300440      -0.08029327
C        0.80188565       6.28842175       1.39291376      -2.16831348      -1.82071790       1.43076740
C        0.01555159       7.09401088       2.37202185      -0.08990625       1.18054783      -5.02837518
C        7.25252272       2.00578678      21.95355272       0.41604484       0.06185427      -0.60892119
C        5.72349843       3.47197238      20.60839703       0.50213666      -1.94365281      -0.05703102
C        1.19465749       1.39122783      22.03670133       0.51486139       0.57442464      -1.59936751
C        1.06265712       1.70455556      18.85434663      -1.42169423      -0.70387826       3.61106572
C        4.49406439       0.52486253      21.10417989       0.77289495      -0.79634764       1.97414248
C        6.52306564       2.89891196       0.46895274      -1.23350933       0.57387436       0.72085575
C        5.94764161       7.00236487       2.35314389       2.94514930      -2.05485667       3.54274128
C        5.48631781       4.69042396      19.98028826       1.17515121       2.05979890      -0.53876615
C        2.67509998       0.30135165       1.39482859       0.58802944      -1.57196360       0.53395548
C        4.12080355       2.33914490       1.47477831       2.23815829      -1.00540823      -1.55208678
C        3.02327201       5.77442877       2.90652930       1.12436532      -3.52407012      -0.23297960
C        2.43273298       6.32504252       1.53037592       0.04910812       0.94230358       0.51730591
C        0.41621967       5.35837471      20.60359869       1.70808097       0.82265470      -0.18022164
C        3.27110390       3.28009161      19.48069826       0.46557859       1.18776486       1.03557614
C        1.59826877       1.23642699       1.07358797       0.90971744       0.97294761      -1.30801233
C        0.01313530       1.97709235       2.81984389      -2.94804023       0.89962830      -0.97046059
C        3.53055808       4.31295531       3.33367120       0.45048917       4.55397607      -3.18221861
C        0.88648602       4.18330350       0.18274221       0.49939274       1.11963053       0.16467223
C        5.24184314       6.36166328       3.50339258      -0.69780760      -1.76057263      -2.66425555
C        2.25974596       2.63620594       1.33227002      -4.26508695      -0.56379419      -0.82551865
C        2.74067863       6.42467509      21.40737607       0.47110895      -0.13389156      -0.35220760
C        6.16184864       6.79297537      19.63052795       2.03364247       1.67115411       0.49315033
C        5.52120727       2.65538574       1.76932397       1.30966164      -0.79930582       0.99278850
C        5.79761314       0.63878210      20.25332026      -1.26512826      -0.80950715      -3.50331199
C        0.43229065       0.94584704       1.91660807      -0.44355030       0.95022171       4.82250301
C        5.13938026       7.42046638       1.23866870      -0.31991759       1.17483723       0.34958275
C        6.14651534       5.30847562      22.23690227      -2.32054840       0.87438661       1.24739647
C        3.70163314       6.94778374      20.46827664      -2.01341930       1.07854151      -1.87362864
C        2.14181429       3.84882379       0.68924812       2.46677707       0.87518642      -2.97336399
C        7.28778855       3.02947459      20.72698122      -0.01976968       0.54507185      -0.62708158
C        3.73650003       6.81708561      18.83679779       0.96138751       0.60764067       4.29589524
C        3.86956176       0.80388794       3.40278524      -1.84441099       2.32445423      -1.43082401
C        6.65119693       0.67388986      21.50971802       0.53602373      -0.58304036      -0.15961362
