64
Lattice="22.527393 0.0 0.0 0.0 7.527393 0.0 0.0 0.0 7.527393" Properties=species:S:1:pos:R:3:force:R:3 energy=-425.4772867 config_type=Amorphous_Surfaces kpoints="1 5 5" kpoints_density="3.58602245 5.99123926 5.99123926" virial="30.28122294 10.28630081 5.4881166 10.28630081 -0.47976438 17.58542383 5.4881166 17.58542383 34.11296588" cutoff=-1.0 nneightol=1.2 pbc="T T T"
C       22.14107074       4.29228509       3.75087735      -1.84061649      -2.21185064      -3.81284158
C        1.23848848       7.31824439       2.29152661       0.71761027       1.13214168      -0.26054913
C       20.02372107       4.50095948       1.26672475      -2.31015704      -5.27274770       2.70623327
C        1.11949880       1.69919606       5.95054719       1.03083432       1.50664873      -0.41098037
C       22.19252330       2.31209898       5.40802539      -0.26895316       1.63990892       0.77578909
C        2.58470296       5.55869369       5.33547638       0.08912950       0.82282371      -2.07179378
C        1.76083115       0.70252406       4.83796086       0.58831922      -3.33363794       0.35015846
C       21.90818255       0.81845344       3.64558418      -2.10729100      -0.51889519       0.03527775
C        1.74102957       3.50028291       4.56866838      -0.87744067       1.88639100      -1.61760057
C       21.15058632       1.38965460       4.78845320      -1.07672753      -0.40258557      -2.63752110
C       22.12050323       5.15128860       2.31212156       0.19047497      -0.80264148       0.73524784
C        2.00565885       6.92890504       5.75929119       0.92626174       1.37638277       0.31728677
C       20.98940283       6.20266969       2.56331067       2.08652866       0.26001696       2.08766760
C        0.09218209       2.10887442       1.79019471       1.43014793      -2.69050882       0.31685481
C       19.78407466       6.96645920       4.44710851      -1.33464055       0.30038794       0.83344837
C        2.37150372       1.62467487       0.85367411       1.58335203      -1.10143202       1.02842077
C        3.11819668       2.95488565       0.52147520      -0.49916572       1.53102088       0.46374114
C        1.08933462       2.57299089       0.80506974      -1.22857323      -1.63991625       1.56396675
C       19.14096265       3.36149284       1.66955319       1.08039245       1.17605130       0.09781847
C        0.82972894       0.58389235       3.69954806       2.36413986      -1.71148136      -1.91165964
C       21.54082835       5.11605287       4.77235963      -1.14989412      -2.85794261       1.20999164
C        3.16503113       3.97541196       2.60657812      -0.49938473       0.10707107      -0.69664710
C        3.23295122       5.75884707       7.43820845      -2.52558086       2.04248024      -1.54888172
C       22.30412401       7.03724680       6.81124436       0.05835603       2.04694579       0.91041579
C       21.10981174       4.56787800       6.16606398      -0.26730080       0.72046441      -0.64609444
C       21.37396795       3.16499777       6.41432492      -0.18173962       0.35299368      -0.11711696
C       19.11931382       0.84597359       6.43250358       1.00308597       0.50787048       0.74741243
C        2.84525479       3.23164531       3.63418018       3.40894207      -1.55094191      -0.09450006
C       20.23973624       0.92447677       0.02589423      -0.78273504      -0.57200379       1.35818979
C        2.03902192       4.59598529       2.01689721       0.85442735       1.65076562       1.06529961
C        3.63159597       2.23625297       5.73905003       0.50242386       0.04249447      -2.52186896
C        1.54999728       4.99681144       4.60833774       2.62182712      -3.19474855       0.37948780
C       19.73739790       6.10736537       1.86181033      -2.95580825      -0.21551788      -3.34342396
C        0.31910052       1.90390351       3.24291382      -0.01634481       2.28397194      -1.55581150
C       20.16257992       2.24865811       3.73960884      -0.03485997       0.04109286       0.11239681
C       20.91312507       2.28996844       7.49063674       0.98890191       0.85011455      -0.05163598
C        0.37023770       0.32648562       0.23620959      -2.02307752       0.73627017      -0.45606172
C        1.94771840       5.30404951       0.75089509       1.38179908      -0.04708649      -2.08297308
C       20.83747809       7.21651920       6.73877814       1.23745247      -1.46703874      -0.48439357
C        1.01463378       5.75067232       1.94250398       1.20406496      -0.21991088       0.27995162
C        3.25324841       3.33631371       6.58829050       0.47773373      -0.70467924      -0.08421520
C        3.74799501       2.19234568       4.26360572      -2.67768910      -1.47339097       2.38492031
C       19.60788792       5.59050445       0.52174619       3.59692341       1.16513565      -3.16602768
C       20.68003414       5.98861321       4.06908283      -1.58052385       2.25739650      -2.07454809
C        0.06082396       0.52155801       1.60099369      -1.68382903      -0.55002133      -1.76176235
C        1.88396588       3.79683208       0.76052262      -1.51744715      -0.08053700       1.37809586
C        3.07940451       0.94557605       4.25467071       1.45212192       2.18779279      -0.70601524
C        3.21249635       4.80308645       6.25568512       2.31348187       1.31013298       3.52914172
C       18.77099527       7.41153889       3.59828957       1.90949399       2.03463489      -3.48837751
C        0.35766742       3.04400246       4.17050693      -2.04828485      -0.00392905      -0.04975633
C        3.14502681       7.13371787       6.63370327       0.05339047      -2.40275883       2.95434063
C       20.05442591       0.84297016       1.63527344      -1.32137838      -0.38071773      -0.06940698
C       21.44979516       4.16389035       1.46997189      -2.48285832       1.18102728      -0.14343755
C       20.54189616       5.75081534       6.91512238      -3.67306483      -1.11819965       2.29928936
C        2.52496032       0.39375793       1.66901121       0.45860859       1.54554355       1.43241218
C       21.31294124       0.16966744       2.33941589       1.27172383      -0.02344027       0.35927796
C        0.36960694       5.55091037       4.87557525       0.71464706       4.14615541       3.29827588
C       20.27458612       0.34469438       5.52583662      -1.69863494       1.06239282      -0.56917878
C        1.17538926       1.39046003       7.38005181       0.17668550       0.10666232      -1.69369537
C       20.16167882       2.30022075       2.17024526      -2.44189582      -1.41394006       2.26136427
C        2.01381377       2.83831644       5.84373348       1.69292641       0.40144659      -0.58744073
C        0.59528636       6.54766516       5.89580046       0.58909089      -1.14189357      -1.20199459
C       18.88766464       7.42173851       2.14231110       1.53109463      -1.02274540       4.41880383
C       21.33154887       2.72225157       1.36291730       1.51950330      -0.28548902       0.22723307
