20
Lattice="2.52048668 0.0 0.0 0.0 12.33571827 0.0 0.0 0.0 3.95338774" Properties=species:S:1:pos:R:3:force:R:3 energy=-137.8030053 config_type=Crystalline_RSS kpoints="3 3 3" kpoints_density="1.20367081 5.89098294 1.88795976" virial="28.35442931 -0.11675827 1.55977442 -0.11675827 22.28672261 -1.0732914 1.55977442 -1.0732914 8.79000693" cutoff=-1.0 nneightol=1.2 pbc="T T T"
C        1.84444777      10.88478628       1.53734290       6.77949821      -4.15450527       4.12277634
C        1.92384547       6.96355700       3.59909853       1.86325806      -2.90150234      -0.15384749
C        0.57746205       4.57313695       3.43546038     -12.44736417      -7.41924704      -9.00949692
C        1.89150213       5.33521123       1.17504974      -1.87376043      -1.55235652       3.28428581
C        1.81969601       6.96198358       1.23260573       5.86839373      -3.46553583      -5.54783658
C        0.45953304       8.82464854       0.42924821      16.06168187      -7.34575895      -0.74727436
C        2.11439257       9.70374648       0.39825736     -15.20025090       8.07452629      -0.52315370
C        1.65361227       5.14609504       3.55007079      16.07742065      12.41707588       6.93746062
C        0.63319402       4.40276822       1.75354711      -0.08789147       4.50276812      -3.78527134
C        1.99488309       1.45386358       3.17207691      -0.88972059       0.54788694       0.34537623
C        1.92622697       1.66080635       1.60140775       0.58303092      -5.09477138      -0.04789461
C        0.72568595       0.63005162       3.55642448      -0.62879971       8.60280469       1.35136211
C        2.00475304      10.79191608       3.22176886      -3.53127312      -0.11071993      -1.67155374
C        0.70923309      11.56797919       1.16803778      -5.55599795       0.95431556       1.11352490
C        0.70574199       0.71964804       1.20843381      -0.05691007       5.23699242      -1.61601229
C        1.90939789       2.68126940       0.45852079       0.99397113      -3.64910024      -2.23915492
C        0.65445833       3.42937692       0.32376874      -1.32448228      -0.73388179       5.27511288
C        0.56047349      11.61807392       3.68432282       5.26972899      -5.98070987      -2.75756093
C        0.71074798       7.76134664       1.42960621      -5.97137037      -0.05587837       6.77148563
C        0.78728896       7.65669225       3.14665861      -5.92916250       2.12759764      -1.10232766
