24
Lattice="7.39629711 0.0 -0.45899441 0.0 5.21731501 0.0 -0.01072552 0.0 3.92041134" Properties=species:S:1:pos:R:3:force:R:3 energy=-161.66213596 config_type=Crystalline_RSS kpoints="3 3 3" kpoints_density="3.53893286 2.49155445 1.87221873" virial="13.90663351 3.32777956 2.65921548 3.32777956 17.62893462 -0.28447579 2.65921548 -0.28447579 21.14257503" cutoff=-1.0 nneightol=1.2 pbc="T T T"
C        4.48760983       1.76335976       0.30608026      -0.32524363      -0.93855240       0.60436634
C        0.95093839       1.86487817       0.41582307      -7.34181380       4.73082706       3.63962800
C        1.55838727       3.21994912       0.49905356       6.20429405      -0.95917329       0.52306712
C        1.48371134       0.61071469       2.06946722      -3.13115908       0.39829272       0.02470372
C        1.72263938       0.45649456       0.48722966       0.55942621       8.57305358       0.19464800
C        7.06019243       2.06922898       2.91886268       2.96089985      -4.85057026      -0.34549317
C        3.87960732       2.03228569       1.75460145       1.83434013       2.04605876      -2.69562233
C        2.39014519       0.74040602       3.11199361       2.66032684      -9.02420362       2.02895396
C        0.26916736       1.63759153       2.00596653      -0.98446543      -0.24676999      -2.59961134
C        3.30762356       1.73530506       3.04766452       6.25993162       2.04314482       5.12624237
C        0.80012273       4.71716754       0.46907399      -3.98622077     -13.63475135       2.50332645
C        2.71419844       3.19359271       1.78000198      -0.21301258      -1.03172910      -8.57766072
C        2.59805137       3.04194952       3.22463273      -0.79389397       4.96076608       1.11809952
C        4.52604561       4.55259115       0.32025252      -1.19450753      -1.54187020      -2.51452990
C        5.49135401       0.48509009       0.17007267      -7.01519609       0.46274970       9.29107702
C        5.19207213       3.10272983       1.89044278      -5.40568398       0.63616868      -2.29714238
C        5.47767134       3.09116393       0.39291137      -6.03472894       0.62372395      -2.44972370
C        3.38610051       4.46305837       3.02429729       3.44350635       1.98318250       3.40587338
C        0.21500231       4.88349638       2.05905117       5.92280867      -6.33319543      -1.54182986
C        6.04734582       3.22735025       2.94518963       8.75876008      -1.18934861       5.30267071
C        3.97183892       4.14127134       1.63553958      -0.60703436       0.36893965       3.43900831
C        7.20036880       4.29973872       2.97417915      -1.59744530       4.87781422      -2.72449455
C        6.28030994       0.64534608       3.11843619       5.99752913       0.57897135     -10.73551680
C        6.54166010       0.43133192       1.47011545      -5.97141746       7.46647118      -0.72004016
