16
Lattice="7.29329468 0.0 -1.01131042 0.0 2.52260507 0.0 -0.17646131 0.0 5.33290373" Properties=species:S:1:pos:R:3:force:R:3 energy=-113.42895936 config_type=Crystalline_RSS kpoints="3 3 3" kpoints_density="3.51627342 1.20468246 2.54814824" virial="15.22688969 -6.53764996 -0.37300947 -6.53764996 17.63787757 -1.34439952 -0.37300947 -1.34439952 9.04704669" cutoff=-1.0 nneightol=1.2 pbc="T T T"
C        7.06039187       2.02229532       0.85361887       5.37840133     -12.42442659       6.34044499
C        6.34682365       0.67101640       4.34525592       0.82894897      -5.96823383      -1.00676174
C        5.96381409       1.75824115       3.49660938       0.35967458       6.52204551      -1.40664649
C        0.71371597       0.53073754       0.11729468      -0.43254781       3.26160330      -3.25328097
C        1.09163844       1.83066406       0.84845080      -2.55483195       0.13194693       0.68068554
C        0.90758622       0.66341698       3.96759709      -3.71682530      -0.58859749      -3.63055936
C        6.29271831       0.43851857       0.49551022      -8.46879745      13.31564418      -4.92439781
C        0.00487788       1.92550024       3.34719840       2.91543411      -0.36533406       3.77965429
C        3.10010528       0.69734203       1.44151105       6.10012608      -6.25081814       2.07004185
C        2.70315235       1.90365049       4.62855088      -0.69404300       2.40744446       5.97738481
C        2.46084713       0.70939618       3.95628524      -3.93271162      -3.91039357      -2.68752808
C        4.18414086       1.89408841      -0.32487699       7.34843903      -0.02435776      -3.87680319
C        4.64013238       0.59567056       0.32607196       0.29379242       0.49756550       2.12476460
C        4.40620138       2.07393721       3.32693308       4.02385150      -9.02734504       1.20296520
C        2.57503799       1.85122420       0.95455440      -4.82622598       5.33794159      -1.01090731
C        3.67664126       0.60907457       2.84265762      -2.62268492       7.08531501      -0.37905634
