28
Lattice="2.49405509 0.0 0.0 0.0 6.12350186 0.0 0.0 0.0 11.18207241" Properties=species:S:1:pos:R:3:force:R:3 energy=-183.89532569 config_type=Crystalline_RSS kpoints="3 3 3" kpoints_density="1.19104828 2.92430843 5.34005368" virial="29.60778975 -2.81368323 3.78480141 -2.81368323 33.48830836 -0.03821055 3.78480141 -0.03821055 16.64189429" cutoff=-1.0 nneightol=1.2 pbc="T T T"
C        1.77071128       4.76436472       7.50428399       3.52920116      -3.77845912      -0.16329576
C        0.56252896       1.57016140       4.86192639       0.18598672       4.13487565       5.49692894
C        1.82113641       2.59288701       5.10058458       0.68029540      -3.26848568      -3.92734261
C        1.67915930       3.59792935       8.49429302       3.95788946      -0.85264841       1.50198086
C        1.94277008       2.22130838       7.53490654       1.90554375      10.32967010       2.21897143
C        0.73743071       1.72122060       7.63418176      -3.74796831      -3.31045175      -4.42283241
C        1.80843785       0.50769231       9.41393941       2.72716999       1.16081577       2.12407492
C        1.91482065       0.58182122       0.66701610      -0.39188283       0.49156488      -0.85590251
C        0.39804960       4.62099982      10.53177161       9.23849781      -2.97172036       1.23178454
C        2.01054882       5.55202838      10.60662172      -7.71465600       3.25938666      -3.48798067
C        2.01896895       0.56036931       2.99186780     -10.60480086       0.39909132      -4.84963220
C        1.82165006       5.61948499       1.77746667      -2.01112869       0.94490284       2.79245996
C        0.50281373       4.89867345       1.93919701       4.29858312      -4.83366900      -2.17233136
C        0.66565739       3.52297560       9.56357690      -4.05025752       3.27143759      -5.02070285
C        0.65188612       3.66583543       0.61333578      -1.26145279      -1.18537214      -1.24726195
C        1.89842086       1.45691385      10.58838286      -1.99723225       4.71343420      -0.22460917
C        0.49794855       2.49407732      10.47409224       2.37288833      -4.93518499       4.59835878
C        0.70551364       3.65866965       2.77165377      -0.73990505       1.60904256       7.20240701
C        0.78276051       2.44440507       1.94286003      -5.53347176       3.11966910      -0.87848612
C        1.86870958       1.63538178       1.89305262       6.34826329       0.40568466       0.08384294
C        0.56347683       0.60934930       3.76954303       8.48758604      -2.69631051       5.59485137
C        0.57849396       0.63828015       6.38764861       0.33939891      -1.55768514      -2.17429712
C        1.91954401       4.71453154       4.95602801      -6.44429208       2.09929638       3.61512472
C        0.52153415       5.41513039       4.91466250       7.58873596       6.91468918      -1.68465886
C        0.60377949       0.75650483       8.60681642      -0.83144700      -9.36068526       3.51238735
C        0.61927849       5.52417073       7.44861258      -3.93107214       3.69024600      -0.16849291
C        2.00833809       3.69577005       6.12180188      -1.74969078       0.20368907       0.44263157
C        1.92629752       3.76035431       4.01050931      -0.65078187      -7.99682362      -9.13797789
