10
Lattice="4.01821361 0.0 -1.22897161 0.0 5.22290163 0.0 -0.05583973 0.0 3.11528914" Properties=species:S:1:pos:R:3:force:R:3 energy=-69.34616941 config_type=Crystalline_RSS kpoints="3 3 3" kpoints_density="2.00666348 2.49422236 1.48796062" virial="-6.64284494 0.0 0.01209399 0.0 -7.05878801 0.0 0.01209399 0.0 -7.17087485" cutoff=-1.0 nneightol=1.2 pbc="T T T"
C        2.88879582       0.42985541       1.95309236      -0.63764513      -0.14530898      -0.22133164
C        3.56300032       4.44357665      -0.15441297       0.01530357      -0.16913047      -0.04107186
C        2.29145836       4.79304622       0.84826267       0.00000000       0.62887890       0.00000000
C        3.02902262       1.83212584       1.23645154      -0.01530357      -0.16913047       0.04107186
C        3.70322815       3.04130622      -0.87105072       0.63764513      -0.14530898       0.22133164
C        0.87968851       3.04130622       2.56757510      -0.63764513      -0.14530898      -0.22133164
C        1.55389404       1.83212584       0.46007283       0.01530357      -0.16913047      -0.04107186
C        0.28235105       2.18159541       1.46274748       0.00000000       0.62887890       0.00000000
C        1.01991533       4.44357665       1.85093734      -0.01530357      -0.16913047       0.04107186
C        1.69412084       0.42985541      -0.25656799       0.63764513      -0.14530898       0.22133164
