16
Lattice="4.26982715 0.0 -0.80274858 0.0 4.73227598 0.0 0.08622923 0.0 4.55640344" Properties=species:S:1:pos:R:3:force:R:3 energy=-121.5126408 config_type=Crystalline_RSS kpoints="3 3 3" kpoints_density="2.07480049 2.25992167 2.17632249" virial="1.38387112 0.0 0.05496168 0.0 1.52670878 0.0 0.05496168 0.0 1.36126045" cutoff=-1.0 nneightol=1.2 pbc="T T T"
C        0.30177556       4.15592092       4.10010560      -0.02259310      -0.03399042       0.04100590
C        0.39030253       1.77705945       4.24725672       0.00416999       0.02618431       0.01397061
C        0.25866147       2.94249258       1.82190437      -0.02259310       0.03399042       0.04100590
C        4.05428082       0.57635506      -0.34645055       0.02259310       0.03399042      -0.04100590
C        2.53032298       0.42894410       0.07327247      -0.02969081      -0.01413474      -0.01784847
C        4.00886695       4.14319796       1.78460151      -0.00416999       0.02618431      -0.01397061
C        1.78261929       2.79508256       1.40218034       0.02969081      -0.01413474       0.01784847
C        3.96575286       2.95521752      -0.49360168      -0.00416999      -0.02618431      -0.01397061
C        2.56789274       2.80729959       3.66565580      -0.03917153      -0.02444678       0.01990907
C        1.83127773       0.44116113       2.36620248       0.03917153      -0.02444678      -0.01990907
C        4.09739493       1.78978340       1.93175167       0.02259310      -0.03399042      -0.04100590
C        1.78816364       1.92497738       0.08800121       0.03917153       0.02444678      -0.01990907
C        2.57343808       1.93719442       2.35147470      -0.02969081       0.01413474      -0.01784847
C        0.34718844       0.58907802       1.96905550       0.00416999      -0.02618431       0.01397061
C        2.52477765       4.29111589       1.38745358      -0.03917153       0.02444678       0.01990907
C        1.82573340       4.30333188       3.68038252       0.02969081       0.01413474       0.01784847
