16
Lattice="3.29857419 -0.75786531 -0.44862048 0.2335869 5.07235578 -0.61504746 0.23867809 0.13601355 5.61843505" Properties=species:S:1:pos:R:3:force:R:3 energy=-120.98679432 config_type=Crystalline_RSS kpoints="3 3 3" kpoints_density="1.63042955 2.44261939 2.68631664" virial="1.28799691 0.01863789 -0.07212932 0.01863789 1.32997223 -0.00897158 -0.07212932 -0.00897158 1.128627" cutoff=-1.0 nneightol=1.2 pbc="T T T"
C        3.50114366       3.40509025       3.72127820       0.03539403      -0.01375388      -0.02007035
C        2.95912078       1.15819122       1.27461200       0.03832291       0.02236946       0.06177854
C        2.18443021       0.40022398       4.91689876      -0.04142144       0.02700718       0.08278163
C        0.99609711       2.82981808       4.29719003       0.02486396       0.01219890       0.05631558
C        0.48983926       0.67303084       1.32660622       0.01048688      -0.03267427      -0.00185581
C        2.10200668       2.82263929       3.09237512      -0.03910833       0.01978009      -0.03807987
C        3.28781360       0.83010039       3.79653894      -0.00362038       0.02651520      -0.04816566
C        2.50202325       3.29981919       0.49380334       0.00691954       0.05247361      -0.06845120
C        2.96306615       4.17707906      -0.59978163      -0.03911342      -0.06526448       0.06707483
C        2.41240974       1.21822691       2.66522117       0.06383764      -0.02957334      -0.01028726
C        1.64715037       1.15190248       0.44957308       0.00433667      -0.02201407      -0.06235378
C        1.71390460       3.69338659       1.82695404       0.05566021       0.05369974       0.07156796
C        0.38987711       3.11073390       1.19092374      -0.06034986      -0.00966426       0.04949758
C        0.77109050       0.24507209       4.07049575      -0.04956488      -0.02619428      -0.09564149
C        1.29983677       2.55396000       0.05766554       0.02989944       0.01501712      -0.07602153
C        1.23104521       0.14321438       2.62766259      -0.03654295      -0.02992270       0.03191083
