16
Lattice="3.34972001 0.0 -0.83407063 0.0 5.80128337 0.0 0.17732631 0.0 4.83762516" Properties=species:S:1:pos:R:3:force:R:3 energy=-123.65200829 config_type=Crystalline_RSS kpoints="3 3 3" kpoints_density="1.64851916 2.77043141 2.31178323" virial="1.34882326 0.0 -0.02550701 0.0 1.03529406 0.0 -0.02550701 0.0 1.31778248" cutoff=-1.0 nneightol=1.2 pbc="T T T"
C        2.89250287       1.67374747       0.07300566       0.06582224       0.05722753       0.02663536
C        0.55108048       1.54443471       4.47834013      -0.06133048      -0.01869127      -0.01185034
C        2.32695196       5.67881091       2.48475828       0.01897287       0.05369860      -0.02366057
C        2.98116651       1.22689370       2.49181773       0.06582224      -0.05722753       0.02663536
C        3.06462952       4.44507588       1.94402749       0.06133048      -0.01869127       0.01185034
C        1.59102178       0.60269312       0.05835555       0.01761482      -0.08577741      -0.02081035
C        2.23828831       3.02311467       0.06594519       0.01897287      -0.05369860      -0.02366057
C        1.67968542       2.29794908       2.47716864       0.01761482       0.08577741      -0.02081035
C        2.97596587       4.25684866      -0.47478561       0.06133048       0.01869127       0.01185034
C        1.84735992       3.50333429       1.52638686      -0.01761482      -0.08577741       0.02081035
C        0.54588083       4.57439066       1.51173879      -0.06582224       0.05722753      -0.02663536
C        1.20009339       0.12247246       1.51879825      -0.01897287      -0.05369860       0.02366057
C        1.28875703       2.77816870       3.93761032      -0.01897287       0.05369860       0.02366057
C        0.63454349       4.12753590       3.93055086      -0.06582224      -0.05722753      -0.02663536
C        0.46241684       1.35620749       2.05952806      -0.06133048       0.01869127      -0.01185034
C        1.93602356       5.19859025       3.94519996      -0.01761482       0.08577741       0.02081035
