16
Lattice="4.39706319 -0.91701976 -1.12721268 0.07626863 4.57719281 -0.2127396 -0.00718081 0.10237258 4.70877285" Properties=species:S:1:pos:R:3:force:R:3 energy=-109.09460208 config_type=Crystalline_RSS kpoints="3 3 3" kpoints_density="2.21153298 2.18852374 2.24923163" virial="8.56298601 3.14755927 2.8757853 3.14755927 12.04851016 -4.74138426 2.8757853 -4.74138426 25.61662191" cutoff=-1.0 nneightol=1.2 pbc="T T T"
C        2.43498319       1.27992676       3.38287387       3.84975831       3.02630879       8.42617398
C        0.61768074       3.85022782       3.40292029      -3.06826691      -0.10380799      -0.90583154
C        2.11991697       2.42569853      -0.07659261      -5.63990930       0.40772990     -14.27162957
C        0.06199092       1.52403927       2.28949422       6.54913181       7.98577260      -8.55981921
C        2.76685857       3.58797124       1.92028495      -2.03967678       4.89579869       1.36051279
C        0.66640423       2.87418468      -0.01387855      -3.45138031       0.76116373      -0.96774197
C        4.25282543      -0.06906935       2.16997074      -4.98130541      -8.28451837      16.78394692
C        4.28583372       2.22149815       1.23435396      -0.80726052      -2.86122232      -4.49997027
C        0.37691170       3.96782328       0.98352437       1.30215361      -1.22209220       4.18495262
C        2.37009149       0.08114364      -0.12300742       2.53906241       0.58621103       0.46618129
C        1.80893737       1.31514302       2.12778692      -1.64187088      -0.61235429      -3.74399034
C        2.58832000       2.31605852       1.07092286       8.08569556      -0.38378752      14.22371873
C        2.01414502       3.87314267       3.41327308       3.31350941      -6.52285495      -0.64919823
C        4.09351035       0.92273224       3.56547902      -2.16741330      -2.43755326      -3.62236593
C        1.81119131      -0.05910389       1.41171853      -2.68226272       2.56715703      -1.85596450
C        3.88226716      -0.15868771       0.10119189       0.84003503       2.19804913      -6.36897479
