16
Lattice="4.09167938 0.1977276 0.48994409 -0.01025419 4.62652534 1.34412184 0.04719612 -0.08011071 4.9940161" Properties=species:S:1:pos:R:3:force:R:3 energy=-111.59046146 config_type=Crystalline_RSS kpoints="3 3 3" kpoints_density="1.97022408 2.30077938 2.38533027" virial="10.73922175 -2.4096395 -1.03690587 -2.4096395 11.19303617 -0.73068954 -1.03690587 -0.73068954 18.75958992" cutoff=-1.0 nneightol=1.2 pbc="T T T"
C        0.10246476       0.30338808       0.62585708       2.93477907      -2.88264521       2.49502739
C        0.85526672       2.88108682       5.73517086     -10.56868303      -3.77439021       6.63248303
C        3.75792681       4.28318804       3.89667040       3.51041864       0.44748687      -1.98268530
C        0.45445858       0.42002792       2.90538850      -3.12044766       2.24436723       0.07466206
C        3.98512299       4.20271363       6.31316150      -1.20585032       4.90463354      -2.74048134
C        2.46645446       1.95727625       2.48328095       7.05283194       1.12056725      -5.17285415
C        3.69454451       1.91150291       3.55175861      -2.32940965      -2.22361141       2.60824086
C        2.80696314       1.56011363       4.78474123       0.30677571       3.39761444      -0.48989961
C        1.59959848       4.37624538       2.03046945      -0.55324864       4.71345873       3.75132718
C        0.53532191       2.87057959       3.25669362      -2.80110021      -2.48110462       1.62804264
C        1.45325474       2.79075937       4.61215726       7.91995891      -0.97930563     -10.73485052
C        2.55632532       4.59119331       6.02796432       2.44536150       3.79986673      -4.13176013
C        2.31866231       4.22986899       4.28728124       5.43882274      -4.63992952       6.63086136
C        1.44011040       2.92742825       2.06987856       0.37466967       1.62577044       3.69553538
C        1.91436941       0.68463786       2.25403894      -7.81569523      -2.86723339      -0.47861977
C        3.66358022       1.92712070       1.17244555      -1.58918343      -2.40554525      -1.78502909
