32
Lattice="9.36273308 0.0 -0.66291349 0.0 5.93460518 0.0 -0.12255601 0.0 3.43507041" Properties=species:S:1:pos:R:3:force:R:3 energy=-224.51687521 config_type=Crystalline_RSS kpoints="3 3 3" kpoints_density="4.48241261 2.83409989 1.6414785" virial="50.74685421 0.24411308 2.16539045 0.24411308 26.88635996 6.12690889 2.16539045 6.12690889 33.72777309" cutoff=-1.0 nneightol=1.2 pbc="T T T"
C        6.82849077       3.11471320       1.78017204     -24.64991291       7.06041959      12.76590921
C        3.33158335       5.52937758       1.54059660      -7.40565143       5.40978728      -5.39494379
C        3.19606787       3.04388386       1.27513902      -1.91593008       3.06619274       0.20711588
C        9.02170293       0.44363999       1.56373261      -2.76904300       5.46475356       8.44167528
C        6.07509001       1.84763357       2.70042308       1.97853636       8.91971975       3.82364536
C        4.82622479       2.72575223      -0.23601696       5.10976937      -2.13001530       3.78500890
C        4.34813673       0.67004108       1.01478031      -0.47706496      -1.70531423      -0.88185389
C        0.59309708       0.52352939       1.23561173      10.82058886       6.04298307       2.88160433
C        3.69158524       1.98096824       0.24437627       4.65933149      -1.94120874       7.99420091
C        1.89052380       2.74814077       2.00117881       1.67919737      -5.54054131      -2.81771891
C        0.79792445       3.60635091       2.32913674      -2.36805966       1.07899425       3.66086868
C        0.15955889       2.73141408       0.16006102       9.40913711       6.34582821       2.75243703
C        8.45612700       2.02772741       2.49705573      -6.33063067      -8.63848954      -7.14206461
C        1.24913704       1.77944412       0.71503393       0.80208465       4.39737579       2.61347215
C        1.90213485       0.19394337       2.19612669       1.67017290      -2.52893922      -0.64691569
C        6.77883392       4.47916700       2.72458065       4.39219703       1.66278588      -0.92024620
C        2.96228901       4.40157435       0.55447594      -2.82919314       3.75591574      -4.32201669
C        7.75591818       2.79812836       1.16815617      19.01086612      -9.87782600      -8.66801073
C        7.85972475       0.06412733       0.83847675      -1.91040909       5.59525212       4.34046317
C        4.20399388       3.55485568       2.21977190       4.72645537       1.41337637      -5.79816281
C        1.24266019       4.87700228       3.02722294       3.08420546       1.42085838       1.02313530
C        0.21419309       5.71734136       0.16737682       1.77626431      -5.54723648      -6.82366858
C        8.92592934       3.62047758       0.66401237       2.27442046       0.86244621       0.25906226
C        5.46548024       3.63509042       1.13713055      -0.63849414      -1.75978871      -2.66465683
C        8.59639838       5.00156365       0.19682011      -6.48275839      -6.64101694      -4.45668684
C        6.66310861       5.77592713       1.67453318      -0.17648568      -7.58691481      -1.69089125
C        5.65712761       0.69142619       2.28988276      -5.37165185      -6.40805703      -5.97392201
C        4.96387764       5.67524899      -0.11948395      -0.26942510       3.74438547      -0.34384312
C        3.72806508       4.87293535       2.58050086       5.59486120      -4.04846382      11.37811499
C        5.99188847       4.84816229       0.45624117      -1.33013750      -0.62666022       0.76215978
C        7.60351101       1.52621007       0.13258408      -1.94516217       2.35307386      -1.62032657
C        2.36057363       1.72436713       3.17691231     -10.11807829      -3.61367592      -6.52294470
