16
Lattice="4.07369055 2.16550931 0.08782799 -0.10383624 4.67702071 1.01721871 0.01403365 -0.1060189 4.83557248" Properties=species:S:1:pos:R:3:force:R:3 energy=-119.99421905 config_type=Crystalline_RSS kpoints="3 3 3" kpoints_density="2.20359897 2.28628831 2.3098161" virial="1.32988471 -0.08823143 0.0246345 -0.08823143 1.4413272 -0.0592794 0.0246345 -0.0592794 1.49883266" cutoff=-1.0 nneightol=1.2 pbc="T T T"
C        0.72001069       0.98658255       0.87662898       0.02347680       0.01116921       0.00085018
C        1.41225477       4.50847893       1.31503969      -0.00739567       0.05869631      -0.02473237
C        0.42875347       3.34070049       1.14273189       0.02260712       0.04264506      -0.04518206
C        2.40804631       4.15370581       2.37153251       0.00426117       0.08707196      -0.02803044
C        2.33042146       2.51939780       2.26803648       0.00631938      -0.08047780      -0.01356893
C        3.66261011       5.00643692       2.57927093      -0.06299394       0.00787275      -0.02783947
C        3.26387724       5.74992836       5.06399016      -0.02347680      -0.01116921      -0.00085018
C        1.54520575       2.24037455       0.99387277       0.01326804      -0.09559465       0.01637798
C        0.32127786       1.73007392       3.36134834       0.06299394      -0.00787275       0.02783947
C        2.43868217       4.49613636       4.94674642      -0.01326804       0.09559465      -0.01637798
C        3.55513449       3.39581030       4.79788722      -0.02260712      -0.04264506       0.04518206
C        3.41797059       6.28259958       3.55802950       0.00816944       0.03698391      -0.04682533
C        1.57584157       2.58280493       3.56908689      -0.00426117      -0.08707196       0.02803044
C        2.57163319       2.22803196       4.62557949       0.00739567      -0.05869631       0.02473237
C        1.65346650       4.21711309       3.67258274      -0.00631938       0.08047780       0.01356893
C        0.56591729       0.45391149       2.38258968      -0.00816944      -0.03698391       0.04682533
