64
Lattice="7.527393 0.0 0.0 0.0 7.527393 0.0 0.0 0.0 22.527393" Properties=species:S:1:pos:R:3:force:R:3 energy=-449.21430285 config_type=Amorphous_Surfaces kpoints="5 5 1" kpoints_density="5.99123926 5.99123926 3.58602245" virial="10.29085838 -3.80854828 -0.51067151 -3.80854828 -23.14073105 -5.46427625 -0.51067151 -5.46427625 2.89460476" cutoff=-1.0 nneightol=1.2 pbc="T T T"
C        3.93208428       6.45884945      19.28761598      -1.30784255       2.15447961       0.34051742
C        4.31144231       0.39786036      21.88051891      -0.94357425       0.50593909      -1.32765565
C        2.69759936       7.18695160      19.61496152      -1.27081870      -0.56889707       0.09064092
C        6.97325644       6.02087562       0.03685481      -1.05760457       0.21346480      -0.96845577
C        6.08914155       0.76776398      19.40164964      -0.14148577       2.05954181       0.97590916
C        5.61075314       0.21261874      22.12872573      -1.47361861      -0.20940374       0.69340728
C        2.40850983       3.46180288      22.46533003       0.68035819       1.16416687      -3.57125783
C        5.07015083       7.15005984      18.94878146       2.33422491       1.31393012       0.10898001
C        4.78291304       4.80353057      22.25465385       1.18194593      -0.92666926       0.82725156
C        5.52823786       4.82259746       1.98700617       3.22978190       0.32727808      -0.36907005
C        6.22891771       2.86113197       3.17223990       0.07001057      -1.60193583      -2.39844374
C        2.87444040       6.18403186       0.54144589      -0.92776763       2.26965903       1.34102160
C        7.17406470       1.75355889       3.24757150      -0.79181805       3.14508459       0.32580546
C        1.53436873       0.60892846       2.74016450       2.04679323      -2.31561929       1.85937478
C        3.42180984       1.41026461      21.24186732       2.74292325      -1.24159383       0.97761195
C        0.91920007       5.74793235       2.08657725       1.90062294       4.08417773      -1.29751705
C        0.61276743       5.87619913       0.60693302      -0.04204223       0.94251599      -1.94937509
C        0.15083390       0.99599453      21.49838674       3.18248998      -1.01733084       0.99187598
C        2.94439246       1.07884855      19.88968308      -1.47594729      -0.50383903      -0.29110578
C        6.16686941       4.91580916      19.02454108       0.50379164      -2.15812651       1.72490944
C        6.75072412       0.42460518       2.89346341      -0.76764369      -1.58636896      -1.53260101
C        6.71639168       4.15802651       2.60680234      -0.43993614      -1.22021477       1.49373694
C        1.84493391       1.55915644       0.54619917      -0.00202025       0.79803190       2.06654198
C        1.18560956       0.61040383      22.32142505      -0.27099789      -0.96264990      -1.12833469
C        4.95151159       2.96918770      20.12727949       2.00375348       0.82667262      -0.00173557
C        2.02691617       5.87050089      17.54924464      -0.93662100       0.98060786       0.81388565
C        0.67103698       3.58698342      20.29961405      -1.20751469      -2.15603642       0.84044960
C        2.88467766       7.15760229       2.87467557      -3.53193403       0.20999284      -0.31733026
C        2.48970782       5.86070775       2.10631125      -0.05720299      -0.53809285       0.04650720
C        1.94540956       6.22294848      20.78402058      -1.83472540       1.29812846      -0.76896838
C        4.36749880       4.03867969       2.21660536      -2.72456784      -1.50792229       1.77202998
C        0.72120705       6.09495269      19.80991358      -0.08007547      -1.61001840       0.00017147
C        7.45802055       4.57892069      19.60973517       2.13977271       1.83892812       0.58857679
C        3.39438754       5.04372215      22.34751177      -1.03290916      -2.89268191      -3.48008083
C        1.90701985       3.73215672      20.89125097       2.13389944       2.16502810       1.64865935
C        3.85989658       5.11316988      19.66420640      -0.05306060      -0.47835656       0.11289720
C        3.72618750       7.36671327       0.56615844       2.04361843       2.60966472       1.12446532
C        4.82012847       2.63629627       2.61657922       2.22685988       4.46912021       1.61211907
C        1.74276461       3.50574027       2.93869842      -2.64899959       1.83431313      -1.08831039
C        7.37774843       2.34533242      20.81335125      -2.42743052       0.02628091       0.97614846
C        4.91737486       4.25168233      19.37378325      -0.14682549       0.69464383       0.01654434
C        1.25485405       2.87331882       0.62623900      -0.41907098       0.66840704       0.39203879
C        7.04895943       6.96746034      19.95674713      -2.20058791       1.35470693      -2.35090481
C        1.52889632       6.41481421      18.64903197       1.62035087       0.33557808      -2.02347467
C        4.05628627       0.25735404       2.94077094       2.29768220      -0.29523747       2.00948990
C        5.15649003       7.05807510       1.04432488       1.40460093      -0.58805226      -1.93991668
C        6.55273863       3.12158729      22.11421808       1.02024560      -0.35887441      -1.91378846
C        5.67309501       5.66995609       0.67670036      -1.45880058      -1.56440909       1.10030601
C        6.11868656       6.28742061      19.03992729       0.57940750      -0.97240565       0.39691151
C        5.43201519       7.44528420       2.47393577       0.57575234       0.62515579       0.22137262
C        3.22198766       2.19635778      22.47661626      -1.21472933       1.22359286      -0.23767398
C        6.21785244       2.08553198      19.94377135      -1.80004425      -3.62283393      -2.01492710
C        1.12858956       1.98166901       3.13799826       0.01794861       0.35798499      -0.17845602
C        6.79005475       7.31138693      21.39207997      -0.45558434      -1.37067656       1.72450449
C        0.42656231       7.28458941       2.45172376       1.34191852      -0.66893388       2.09589819
C        4.03230399       1.58168593       2.43259801      -2.35108269      -0.33252610      -0.32897687
C        0.60078382       4.52917968       2.71085636      -2.05365401      -3.74214966       1.70075207
C        2.95827298       4.42187669       2.44271281       1.26358594      -1.82669187       0.69519757
C        5.31485885       3.62842925      21.66461638      -0.69230781       0.23197253       0.22307329
C        2.76555666       4.98299115      20.74202952       0.29633890      -0.73038157       0.47270878
C        3.11937424       1.38068948       1.24252089       2.78707105      -1.12257185      -3.32394326
C        3.83885752       2.04843698      20.01975625      -0.20231454       0.64152622      -0.07642786
C        1.64356110       6.66103523      22.30588114      -0.35238888      -0.71999385       0.12993759
C        7.51208228       3.20926637       0.47284998      -0.83019920       0.04092077       0.34650210
