32
Lattice="4.5836051 0.0 -1.26165235 0.0 10.09465323 0.0 -0.08110837 0.0 4.14572772" Properties=species:S:1:pos:R:3:force:R:3 energy=-229.33395317 config_type=Crystalline_RSS kpoints="3 3 3" kpoints_density="2.27033056 4.8207513 1.98019153" virial="24.06264066 -0.9563503 0.80374963 -0.9563503 32.82640263 0.58311866 0.80374963 0.58311866 25.44082831" cutoff=-1.0 nneightol=1.2 pbc="T T T"
C        2.80008100       8.11638052       0.84817591      -7.60911961       5.76011875      -1.06292999
C        4.07826734       3.14905786       1.31686478       1.60167104       2.15841079       2.08413200
C        1.92968459       3.02706146       2.08802670      -6.83599054       2.38468876       2.21861958
C        1.91476577       5.75977453       2.10140796      -3.63015405      -3.37386562      -1.01434261
C        0.29709389       1.72708897       3.33486463      -8.57994998       3.83567066       1.77815758
C        2.76967146       2.00447026       0.06762523      -0.05754904      -4.32177584      -5.33004822
C        2.55416416       5.76448985       0.67726960       3.57803029      -8.46662515       7.03698194
C        4.05166427       4.35487944       2.18205208      -2.14961974       2.15440288       3.56981954
C        0.46179877       5.84498461       1.56124096       0.63715628      -3.87408140       1.06508594
C        4.42437972       1.99529926      -0.49106779       0.89863851       1.44980297      -3.47184051
C        2.39075790       4.32330911       2.67281829       0.41084775       2.23489600       4.12599905
C        2.59344780       3.06886493       0.91704909       5.09754356       3.39494026      -3.92413048
C        2.09471002       4.37753032       0.10835031       0.51263647       0.79491998      -0.55038418
C        0.48829755       4.36393404       0.66095049       0.92584014      11.17857416      -9.25944537
C        0.36788865       3.37757588       1.42657381      -0.19122167     -12.59220562       6.49140416
C        1.83870288       0.50484239       2.01048824      -1.96794509       4.75660665      -1.17594363
C        3.83252628       6.85971046       2.35415151       5.49945436       3.09158698       1.19897977
C        2.05003247       8.25675888       2.20945672      -5.94056168      -4.03921666      -5.45412008
C        4.00704841       8.08928778       1.26693068      10.35738476      -0.72853992       7.70353425
C        4.22441300       0.44743844       1.49334964       0.42644928       9.79486710      -3.92832393
C        2.35184622       6.96727616       2.84160844       1.97272561      -1.22086001       0.14733969
C        0.59763544       6.94047475       0.63500805      -2.49586360       2.86357918      -2.22012370
C        0.41936208       0.78996506       1.17550823       0.42009179      -6.72077890       7.74896618
C        1.88629101       9.26659549       3.08657465      -4.05081448       8.98212364      -2.62203085
C        2.77638286       0.82198783       0.88229972       3.22048773      -8.46428378       2.26090861
C        2.17588280       6.91524801       0.19601557      -4.27143849       6.42896332      -5.64533767
C        0.21335737       9.48888056       3.34571297      -1.92131169      -6.85908009       4.43327867
C        0.47105458       8.26727963       1.59703468       1.81820629      -3.13817174      -4.87640135
C        4.42573583       9.50817053      -0.52684447       2.13899269       0.73360080      -1.35649263
C        2.91005972       9.57521680      -0.08302137       0.62502132      -1.53441617       2.55568429
C        1.63796868       1.86870454       2.99539137       5.79723795      -1.52214924      -0.82660488
C        3.90358668       5.81115147       1.36467926       3.76312384      -5.14170276      -1.70039118
