16
Lattice="4.22974726 -1.15107553 -0.49289036 0.00995412 4.67080085 -0.70978086 0.0267514 0.11682577 4.79310166" Properties=species:S:1:pos:R:3:force:R:3 energy=-109.55307121 config_type=Crystalline_RSS kpoints="3 3 3" kpoints_density="2.10658984 2.25617629 2.28968473" virial="10.72041234 2.47439075 -0.0194953 2.47439075 18.07100073 -0.75506871 -0.0194953 -0.75506871 9.3050185" cutoff=-1.0 nneightol=1.2 pbc="T T T"
C        0.40034601       2.39312643       1.26713927      -0.97344530       2.86363081       2.22783697
C        2.38494840      -0.46269294       1.18761089       5.49581453      -9.33494180       2.12103659
C        3.86337395       2.02203189      -0.28985850       4.16530534      -0.82224521       3.58216822
C        2.49438097       1.79037331       0.01864627      -6.74066178      -3.42822562      -0.68920169
C        3.61057347      -0.86036739       3.67690678      -2.99428369      -0.12408458      -0.57825767
C        3.87974310       3.62381166      -0.06488641     -10.42381683      -3.33234971      -3.19141787
C        1.68490644       0.30181479       0.28775339       0.37854860       5.84129619       3.11101139
C        0.82053215      -0.09280423       4.10705136       0.10311879      -3.35662829      -5.83395965
C        2.62928459       2.67585600       2.61309599       1.33343478      -2.37592525      -4.97512236
C        1.56233697       0.79724787       2.72965559      -6.66598523      -4.55561292       2.60740754
C        1.90201233       2.83770944       1.15268276       0.21306378      -0.94083227      -0.85080881
C        0.60089939       2.94108969       3.83153300      -9.66471040       5.21385198      -5.08054414
C        0.63155603       0.93910473       1.29494660       6.56929061       1.98287068       2.97507581
C        3.62206023       1.40396060       2.18069927       3.09577768       1.40113311       1.85014992
C        2.76858987       0.03820674       2.45326311       4.40986913       8.69380710       2.73580518
C        1.45266860       1.96087017       3.55626019      11.69867998       2.27425577      -0.01117944
