16
Lattice="4.22974726 -1.15107553 -0.49289036 0.00995412 4.67080085 -0.70978086 0.0267514 0.11682577 4.79310166" Properties=species:S:1:pos:R:3:force:R:3 energy=-120.5127425 config_type=Crystalline_RSS kpoints="3 3 3" kpoints_density="2.10658984 2.25617629 2.28968473" virial="1.35809979 -0.02159794 -0.08514593 -0.02159794 1.2793106 -0.14048429 -0.08514593 -0.14048429 1.41810463" cutoff=-1.0 nneightol=1.2 pbc="T T T"
C        0.38189649       2.42132347       1.36169852      -0.04843261       0.07517191      -0.05664017
C        2.47955531      -0.62164771       1.27394767       0.03050929      -0.03704309      -0.05952240
C        3.87321008       1.95354625      -0.22870755       0.04045717      -0.11151149       0.07589747
C        2.34553323       1.66685762      -0.00857149       0.01086275      -0.05539464      -0.05232448
C        3.51794488       3.80770574       2.91052680      -0.01483431       0.11297878      -0.00925059
C        3.65628497       3.57474875      -0.23015584      -0.04410495       0.09018982       0.13374441
C        1.63917829       0.36418494       0.43974010       0.02335933      -0.01299293       0.02290054
C        0.79215883      -0.10271380       4.02305077       0.05373120      -0.01330973      -0.11504185
C        2.70447865       2.57007236       2.40454043      -0.03246789       0.02516317      -0.04755204
C        1.40929662       0.66122677       2.86382418      -0.04100544      -0.05939514       0.02999038
C        1.90429468       2.75737590       1.11589555      -0.00941467       0.07954681       0.03789873
C        0.50727983       3.03208827       3.66097800       0.02304400      -0.11702189      -0.02082444
C        0.62312442       0.85316228       1.42256423      -0.03933747      -0.07521876      -0.04511214
C        3.73320118       1.45162391       2.19755971       0.02841961       0.03828651       0.03472803
C        2.88320020       0.18578033       2.55043350       0.01963914       0.02772172       0.00064685
C        1.69989458       2.07281294       3.47392585      -0.00042516       0.03282894       0.07046170
