16
Lattice="3.79117654 0.40516034 0.24280055 0.03031738 4.53316831 0.05643666 -0.29720546 -0.15239047 5.72884531" Properties=species:S:1:pos:R:3:force:R:3 energy=-110.50353067 config_type=Crystalline_RSS kpoints="3 3 3" kpoints_density="1.82449271 2.165053 2.74048387" virial="17.47649153 -2.50180605 -10.50699134 -2.50180605 12.18033377 2.19943893 -10.50699134 2.19943893 17.45618264" cutoff=-1.0 nneightol=1.2 pbc="T T T"
C        1.00261350       4.15727599       5.81633759       5.42741657       0.19825617       4.79075392
C        0.54994297       4.37789840       1.70753554       0.36978820       0.02354938      -3.38665603
C        2.21387459       0.59523000       5.70136152     -10.22184117       0.65619467      14.20207856
C        3.12426476       0.95334938       1.63798360      -7.30593872       1.47879149      -3.90106987
C        2.10915594       4.12280950       3.58588619      -4.70401128       4.47245859       1.44903907
C        1.93139366       3.12092066       0.70320169      -2.19002214      -6.36573143       1.14700048
C        2.97266925       2.50243690       1.66427113       1.25030370       1.38240996       2.52548623
C        1.53313190       0.69259769       2.37193690       4.76080284      -7.96304715       1.43245808
C        0.50824782       2.31485949       4.24605938      -0.41144147      -4.02157675       1.22229901
C        2.81317682       0.52796428       4.63412980       9.87054655      -3.84205875     -15.16296362
C        2.34476975       2.75412648       3.15241049       3.76595883      -1.01524801      -1.93112686
C        1.22541910       1.96379848       2.80608882      -6.53677712       4.11695583       2.06428525
C        0.48964957       2.60692616       1.53632423       5.57512463       5.47380805       3.43317234
C        1.75268969       1.98097964       5.42997421      -1.38894874      -0.28903348      -3.83148704
C        2.83352798       2.02964566       4.42372794       5.05976504       1.72908445      -2.24167505
C        0.74647656       3.71005345       4.49508824      -3.32072573       3.96518699      -1.81159446
