16
Lattice="4.58668438 0.0 -1.22185037 0.0 3.36446518 0.0 0.19380996 0.0 5.75394392" Properties=species:S:1:pos:R:3:force:R:3 energy=-121.02204321 config_type=Crystalline_RSS kpoints="3 3 3" kpoints_density="2.26678131 1.6067169 2.74938254" virial="17.554328 0.0 -0.59134216 0.0 16.59088072 0.0 -0.59134216 0.0 16.08249469" cutoff=-1.0 nneightol=1.2 pbc="T T T"
C        3.47046377       3.08496610       0.99629351       0.15498822       0.21882093       0.17933823
C        2.54359993       0.88184463       1.42984410       0.05588920      -0.12200253       0.04379964
C        0.23821340       0.14267193       1.64128471       0.08439352       0.07774871       0.16748684
C        4.54228094       1.82490549       2.89080884      -0.08439352       0.07774871      -0.16748684
C        3.29067831       2.07230703       2.10564361       0.17541307      -0.13142062      -0.01072825
C        1.74143874       0.61962063       4.75596090      -0.02860476       0.08991688       0.28696217
C        2.88756425       3.22179325       4.30474623       0.28459885      -0.14948395      -0.04983986
C        2.23689634       2.56407819       3.10225045      -0.05588920      -0.12200253      -0.04379964
C        0.53934172       3.04894890       5.01199042       0.13564687      -0.24199594      -0.47130785
C        0.64781447       2.38531117       0.53963949       0.49488450       0.25841652       0.41198701
C        3.03905555       2.30185423      -0.22386734       0.02860476       0.08991688      -0.28696217
C        4.24115457       1.36671533      -0.47989687      -0.13564687      -0.24199594       0.47130785
C        4.13268083       0.70307760       3.99245509      -0.49488450       0.25841652      -0.41198701
C        1.89293206       1.53955969       0.22734930      -0.28459885      -0.14948395       0.04983986
C        1.48981800       0.39007347       2.42645093      -0.17541307      -0.13142062       0.01072825
C        1.31003252       1.40273254       3.53580010      -0.15498822       0.21882093      -0.17933823
