64
Lattice="7.527393 0.0 0.0 0.0 7.527393 0.0 0.0 0.0 22.527393" Properties=species:S:1:pos:R:3:force:R:3 energy=-436.06878044 config_type=Amorphous_Surfaces kpoints="5 5 1" kpoints_density="5.99123926 5.99123926 3.58602245" virial="0.14849812 -4.5601311 1.26446663 -4.5601311 35.50661156 -1.83342708 1.26446663 -1.83342708 28.74427098" cutoff=-1.0 nneightol=1.2 pbc="T T T"
C        4.14505681       7.06142479       0.10907764       3.18915401       5.83532209      -0.90320133
C        0.44899394       7.44172374       1.78849479       1.67639905      -0.74701391       0.52898156
C        1.01456461       6.19335078       2.28166447      -4.18188928       0.18219573       1.50251496
C        5.06011681       6.92071523      21.54600965       0.44588519       0.94083047      -0.24514260
C        6.44010625       7.10376638      21.48459998      -0.31055335      -2.71019854       1.00937610
C        6.83654393       1.73041969      19.33377460       1.09188057      -0.71047373      -3.10344775
C        0.58280088       1.24143271      19.33140923       2.61882766      -0.75644877      -0.12552863
C        7.07078887       3.09196700      18.88367729       1.03463273       0.99852931       0.13067542
C        5.64160792       7.50341825       2.95665275       2.70628241      -0.65456797       1.46528230
C        3.91480891       5.75413492       0.38846236      -1.83615973      -5.36168443       1.77427661
C        6.33506148       1.66074614      22.05641279       0.15085271       1.04397199       0.72153553
C        0.99378148       2.75096857      18.74959425      -1.37761825      -2.40952732      -0.06623728
C        4.01426836       2.71859326       1.48329366      -0.65678554      -0.32135007      -1.69734575
C        3.84125876       6.91814839      19.55262823       1.88755627       0.53048118      -0.01813779
C        3.73248040       3.66294234       2.69161797       4.52237542      -2.56093438       0.33102608
C        0.87329803       6.19091190      20.36778194      -2.21169312       0.84398955      -2.56896822
C        2.69653047       1.87972553       1.34337603       0.56623875      -0.70279221      -1.17498547
C        7.06556486       5.82121905      21.27405896      -0.22948209       0.62825410      -1.41324230
C        7.24788584       1.72492469       2.92202815       0.78694563       1.73155913       2.10863196
C        7.48305666       5.24284428       2.17166321       0.97825021       1.66319128       1.28870960
C        0.80963134       0.57965443       0.54203160      -1.58784167      -1.48290546      -0.12568138
C        0.02652653       5.13219160      22.46138774       2.04890694      -2.36889345      -0.25669436
C        1.81459099       3.64123334      19.19002731       0.47911077       2.28269489       0.46027389
C        2.53950905       4.26995884       2.55897668      -3.97058323       2.94621739       0.03373115
C        1.26792160       2.16455455       3.09152425      -0.79766008      -4.82403862       1.70761744
C        6.88034583       4.36070909      19.51665198      -1.46243714       0.38321781      -0.66502665
C        5.94156701       4.90406643      20.64029582      -1.10449891       0.12877039      -1.68037059
C        2.28104096       4.87109645      21.37108444       2.24634936       1.92378198       0.27096210
C        2.34099664       1.32443727       2.70590034      -0.87962926      -0.22544599       0.50527576
C        6.45397923       2.76314037       0.59229022      -0.62041699       1.34588252      -2.34984387
C        5.06853997       3.47745233       0.52509100      -0.58113148       1.53497321       0.72608017
C        3.47048949       6.71645190       3.07836825       0.73695057      -1.51171641      -0.94521850
C        4.59305713       0.41177851      19.24407053       0.94318326      -0.43861038       0.46998676
C        5.67269606       1.15650113      19.73724021      -4.57425933      -1.22146695       0.08278421
C        5.49435706       1.89869456      20.94362716      -2.26171268      -0.90304007       2.76159144
C        2.52074326       5.42790524       1.18599966       2.34227642      -1.75561090      -5.91120423
C        4.69778575       3.94924674      21.57820130       2.72523309       2.57171159       2.29532924
C        1.98269273       3.67122248      20.67593415       0.35886611      -0.27405935      -1.03068245
C        4.62362588       5.94216167      20.62162061      -1.21911649      -0.76205492      -1.65508415
C        2.35057148       5.82715816       2.52664987       1.61941926       0.78679491       2.70157716
C        6.92467464       2.75049435       2.01192147      -1.11850702       1.43083590      -1.41784427
C        1.94507835       1.26529454       0.18544550       0.88026068      -0.11154220       2.12036826
C        4.54213432       1.42091587       1.89378782       0.36319267       0.52245283      -2.10712376
C        3.00562781       2.56029218      20.71465874      -1.65094717      -2.02876615       1.39511870
C        1.37886032       0.22860693      20.23322582      -1.53142325       1.90415634      -0.24544214
C        4.28702344       2.73485995      21.13033420       0.53943688      -3.03221111      -3.16686567
C        6.94667721       0.35337346       2.72863048      -0.56702668      -0.29676910      -0.90309206
C        5.14811204       5.21959969       1.23112203       1.53464974       1.55952196       0.05685095
C        0.00291310       3.56763049      22.28799439       0.89636831      -1.19450921      -1.19036496
C        7.19027870       0.51275848      22.06254025       0.41318434       3.87650771       2.09646081
C        0.90805953       2.99617340      21.40093324      -1.03320638      -1.51863874       1.12946422
C        6.65102380       5.38987685       1.02715901      -2.33925870       2.34902001       1.25657763
C        0.28628934       5.40412620      19.30027637       2.86929133      -0.75677355       0.68229310
C        4.73791428       1.16698679       3.36575021       2.28393597      -2.02652085      -0.97969332
C        3.40159879       0.52346244       3.43828841      -2.45219856       0.05606282       0.73985018
C        5.63149863       2.41685771       3.68721610      -2.12020837      -0.34081729       0.31864497
C        4.62399472       0.31568381       1.13547072      -0.10314403      -0.59881972      -0.10513988
C        1.63966944       5.22063847      22.52360840      -1.95017721       0.95347352       3.33452100
C        0.10818369       3.94261510       2.45564353      -0.91382434      -1.59318143      -0.20820674
C        3.76598483       5.09824306      21.54335142      -0.83364325       0.03638201       0.67356745
C        4.85484481       6.40626309       2.49986480      -1.81825589      -0.20959751      -0.27997325
C        1.93685091       1.46652434      21.26270516       0.33729820       0.72215740      -1.78977405
C        4.76697755       3.47364347       3.50875410       1.14582500      -0.62255858       1.38231797
C        1.34702698       3.40532485       2.72955410       1.87626996       5.32059924       0.26730872
