16
Lattice="7.02911485 0.0 -0.00156634 0.0 4.3732547 -2e-08 0.00065284 -2e-08 3.48888625" Properties=species:S:1:pos:R:3:force:R:3 energy=-105.7988918 config_type=Crystalline_RSS kpoints="3 3 3" kpoints_density="3.35678845 2.08846929 1.66613482" virial="21.46755923 0.95508231 7.01526834 0.95508231 19.89273017 -0.63964611 7.01526834 -0.63964611 20.19996952" cutoff=-1.0 nneightol=1.2 pbc="T T T"
C        3.07745100       2.99592317       2.98608148      -2.41112644      -0.76040351       0.19888903
C        3.04739397       3.56482760       1.59369996       0.09434604       0.34048107       4.81930021
C        4.03392339       3.58593848       0.50015188       4.47291756      -2.80619372      -0.51295909
C        6.45413238       3.63982361       3.15535321       0.15973758      -1.28787911      -4.74069916
C        6.63552479       2.87925056       1.66767243      -4.72426733       1.40629394       1.43815210
C        2.00900086       3.68490498       0.61102329      -5.32588865      -7.52624914      -5.70805592
C        0.37993330       2.86203556       0.38839916       8.17068830       7.91704004       5.61784829
C        5.46898936       2.88924988       0.52794248      -3.02006497       9.27081748       1.41452261
C        6.41056475       0.89266160       3.12724795       2.90456715      -4.12221609      -3.26850109
C        6.41716177       1.14243594       1.66477484       2.76266106       5.84837033       0.90760306
C        0.76840471       1.58261217       0.59192070      -4.75969905     -10.37193082      -1.64973499
C        2.91631149       1.39074133       3.04427919       2.25542268      -0.64359200      -5.29528657
C        2.84867135       0.81826319       1.44018936      12.59910521       0.40148037      16.02764337
C        5.45666382       1.56645019       0.47957608      -3.23913536     -12.17708784       1.58437223
C        4.03041554       0.66370004       0.44287082       2.39450155       6.83237555      -1.12093012
C        2.01458352       0.67395773       0.52688697     -12.33376534       7.67869346      -9.71216396
