12
Lattice="4.12382908 0.0 -0.98613089 0.0 3.45357587 0.0 0.23709409 0.0 5.39226947" Properties=species:S:1:pos:R:3:force:R:3 energy=-87.67549137 config_type=Crystalline_RSS kpoints="3 3 3" kpoints_density="2.02487906 1.64927214 2.57759283" virial="-8.98276934 0.0 0.48207361 0.0 -8.5197431 0.0 0.48207361 0.0 -9.23852081" cutoff=-1.0 nneightol=1.2 pbc="T T T"
C        3.39580908       0.10047364       4.32088224       0.35363581       0.15506377      -0.09984386
C        3.11547922       2.43998713       2.04000414       0.07569598       0.04984940       0.02198704
C        2.33643588       3.22343227       3.22718502      -0.09823047      -0.12999125       0.33349537
C        3.98970842       3.35310223       0.95097374      -0.27553594       0.00460287      -0.37695577
C        1.24171885       2.70779906       4.17285945      -0.08804617      -0.10126268      -0.10220116
C        3.11920433       0.98101009       0.23327940       0.08804617      -0.10126268       0.10220116
C        0.96511310       1.82726261       0.08525658      -0.35363581       0.15506377       0.09984386
C        0.53162770       0.60281649       4.62617481      -0.25316032       0.02173788      -0.04289925
C        0.37121476       1.62631430       3.45516505       0.27553594       0.00460287       0.37695577
C        1.24544396       0.71320023       2.36613569      -0.07569598       0.04984940      -0.02198704
C        2.02448630       1.49664433       1.17895380       0.09823047      -0.12999125      -0.33349537
C        3.82929444       2.32960546      -0.22003495       0.25316032       0.02173788       0.04289925
