12
Lattice="3.33583669 0.27195538 0.14687222 -0.02030331 3.10151592 1.26418078 -0.04595461 -0.75762668 6.22125963" Properties=species:S:1:pos:R:3:force:R:3 energy=-91.9355374 config_type=Crystalline_RSS kpoints="3 3 3" kpoints_density="1.59986868 1.5994858 2.99302307" virial="12.04478829 0.27570042 0.01081264 0.27570042 12.4772296 -0.59278302 0.01081264 -0.59278302 12.99968204" cutoff=-1.0 nneightol=1.2 pbc="T T T"
C        3.10174156       0.16342494       5.25140707      -0.07795666       0.06549236      -0.13610613
C        1.78575867       0.49002416       3.07594824      -0.08031514      -0.00172479      -0.05801345
C        0.59306859       1.49781249       3.46147495      -0.04325973      -0.05175304      -0.11584707
C        0.95691553       1.97741297       5.94470035      -0.06367632       0.09363761      -0.24049184
C        2.67650918       1.11803108       4.17083763       0.04325973       0.05175304       0.11584707
C        1.48381914       2.12581941       4.55636435       0.08031514       0.00172479       0.05801345
C        0.39677459       0.64402843       6.30285371       0.04477186       0.07981185      -0.28822283
C        2.87280318       1.97181611       1.32945888      -0.04477186      -0.07981185       0.28822283
C        0.16783722       2.45241959       2.38090546       0.07795666      -0.06549236       0.13610613
C        1.99139079       2.27262439       6.98094608       0.03402244       0.09329149      -0.30220161
C        1.27818701       0.34322015       0.65136651      -0.03402244      -0.09329149       0.30220161
C        2.31266324       0.63843159       1.68761226       0.06367632      -0.09363761       0.24049184
