18
Lattice="2.12847294 -1.34011139 -2.7e-05 0.0961804 2.51335965 1.72e-05 -0.00012354 0.00011426 18.7223598" Properties=species:S:1:pos:R:3:force:R:3 energy=-128.6798879 config_type=Crystalline_RSS kpoints="3 3 3" kpoints_density="1.20115226 1.20114579 8.94095501" virial="17.46153141 -0.57249229 -1.65837344 -0.57249229 14.68634904 0.46066475 -1.65837344 0.46066475 21.90329141" cutoff=-1.0 nneightol=1.2 pbc="T T T"
C        1.23061219       1.42121418      11.53071957      -5.04648200       2.21474609       6.71208189
C        1.11431113       1.46735441       7.67749520      -1.78515660      -1.56675246      -7.08420175
C        0.19233990       0.19841505       4.95185994       6.25943331      -3.75636011      -1.65800840
C        0.43123078       0.13216174       3.41549580      -8.72050299       1.54550869       1.35270617
C        1.79835051       0.07981653       5.39387469      -5.36265180       3.87282456       4.77253315
C        1.72376868       0.11872139       2.95102176       7.62117875      -0.84897289      -3.05124069
C        0.43716717       0.31665068       0.92858636      -5.71434921      -3.59101679      -4.11384484
C        1.76769612       0.18019141       1.31260286       4.86024177       1.77088322       5.17594008
C        1.21325492       1.40463974      17.43718095      -1.15182690      -0.91653846       7.02747097
C        1.24831724       1.50737373      15.95029708      -2.48469155      -5.55478291       1.28461125
C        0.35652629       0.06746085      18.17702932       1.58579382       3.06236620      -7.26645152
C        0.37132077       0.09459242      15.47426279       2.00547319       6.69951233      -3.78283020
C        1.10738810       1.36059967      13.25376569       1.82746718       7.40997651      -1.50283660
C        0.29817568       0.38277814      13.81729917      -0.70069772      -8.71407755       0.29010952
C        1.70938768       0.19244556      11.02997772       4.68222180      -1.93112559      18.18606985
C        1.68524386       0.10877287       9.84793383      -0.45876023      -2.45010789     -26.02182622
C        1.72294851       0.16643476       6.97066352       1.76483525      -0.04854477       4.40273813
C        0.99096783       1.27187552       9.09221679       0.81847393       2.80246181       5.27697920
