14
Lattice="3.18395714 -1.13281643 -0.6772122 0.11930012 4.28487764 -0.53590352 0.38973502 0.28882872 5.86027088" Properties=species:S:1:pos:R:3:force:R:3 energy=-95.75215194 config_type=Crystalline_RSS kpoints="3 3 3" kpoints_density="1.64596995 2.06299311 2.80817277" virial="19.26891147 6.41782528 -3.82029052 6.41782528 11.74553039 -0.79125823 -3.82029052 -0.79125823 10.97931663" cutoff=-1.0 nneightol=1.2 pbc="T T T"
C        2.91287832       0.72279127       0.34293806       4.56551448      -6.45137137       9.99685095
C        0.85197053       3.16227824       3.23932303       1.30955256       2.17311507       1.54886833
C        3.31041256      -0.07276350       4.05763884      -1.51644584       3.99218090      -2.35528382
C        1.10609398       2.32357258       2.05264019      -2.69113296      -0.59556075      -0.19409528
C        2.19068643       3.56023597       4.14250067      -3.16427086      -3.75221739       2.00663173
C        2.98873396       1.40134256       3.56014713      -2.03888365      -2.53393260      -1.05298626
C        0.54849558       0.94085341       0.11258610       0.21364684      -0.84288082      -0.22581870
C        2.54819749      -0.49305797       1.70418749      13.63042493      17.21897414       2.91716456
C        0.78305335       3.55319639      -0.24034075       2.25959034       5.10981835       0.98035151
C        0.48410270       0.38648479       3.34047045       0.80236928      -0.46306940       1.09229391
C        1.91724794       1.72833976       0.14786548      -3.43304644      -5.45368178       5.70150629
C        1.73379939       1.08009370       2.59735176       0.22977990      -1.95268009       3.06913367
C        1.77888797       3.06171739       0.99362343     -16.16167534     -13.67534643      -6.95811115
C        2.83567605       2.21815349       4.88360357       5.99457676       7.22665218     -16.52650573
