64
Lattice="7.527393 0.0 0.0 0.0 7.527393 0.0 0.0 0.0 22.527393" Properties=species:S:1:pos:R:3:force:R:3 energy=-447.59951479 config_type=Amorphous_Surfaces kpoints="5 5 1" kpoints_density="5.99123926 5.99123926 3.58602245" virial="-25.1095132 8.2889264 2.62683018 8.2889264 -16.00929127 -8.52984806 2.62683018 -8.52984806 5.19125897" cutoff=-1.0 nneightol=1.2 pbc="T T T"
C        4.92171064       0.85157397       1.83190507       0.55800465      -2.63596388       1.13627226
C        7.47707238       6.80417614       3.49107009       0.61576616      -2.03875766      -0.98142491
C        1.20208703       6.49592186      18.41630147       3.36009072       3.52551151       0.15355471
C        4.82055753       0.17550870       0.49393562       1.32398074       2.36559067       4.29347392
C        6.47708080       0.30479167       0.08245026       0.74572258      -0.16548336      -0.50429462
C        6.82681101       2.18301924      20.55065932       1.26123310       0.29406567      -0.64440788
C        1.25290446       0.52304843      18.80762481       0.27587732      -1.80834885       1.17689453
C        0.33534536       3.05536129      21.20048450      -4.21911968      -0.94035852       2.19217299
C        6.57017960       0.02334997      19.65488006       0.60706385      -2.49526033       0.18317135
C        3.23248838       6.27548216       2.81545105      -2.15382831      -1.33531453      -1.97566789
C        5.84887469       1.90223996       1.31163493      -0.42786576      -1.11565531       0.29781447
C        1.25996515       3.48586042      20.32450682       0.06757978       2.59769239      -4.52810643
C        3.75522066       3.16962712       2.89677494       2.47080902       1.57145968       1.56826394
C        3.28641462       6.72334699      21.59027598      -1.39438340      -0.40796819      -1.44483391
C        3.48841974       3.54819477      19.33582460      -0.32742890       1.78794884       1.84407216
C        0.31114479       6.08082378      21.21514983       0.20145847       0.93580844       0.74288007
C        2.84356303       2.39148287       2.93142207       0.53974151      -0.45995885      -0.22379334
C        6.76108934       6.49182696      22.17675413       0.18872436      -2.35343080      -3.32426995
C        0.08913939       0.92364876      19.57830945      -2.34030305       1.01949209      -0.57206062
C        0.37973439       5.51291209      18.80260120      -2.00379488      -0.39477451       1.49720811
C        1.05194564       1.22179374       1.49539087      -1.40700819       1.53488584       0.48229776
C        0.19249049       4.82310179       2.12940182      -2.18954239      -1.64028236      -1.16720665
C        2.57186178       3.45989845      20.67138362       1.88704261      -1.04909502      -1.84183327
C        2.56275364       4.60670430      18.65914677       0.62633131      -1.50337127       1.61522748
C        1.63630469       1.82513687       2.76593584      -2.64309550      -0.81924150       0.17469012
C        5.26421455       5.43547027      20.34818311       2.14929060       0.79744505       0.08619354
C        5.57940908       5.82180618      21.80261919      -0.53604535       0.20393821       2.18580098
C        2.24240285       5.04266079       0.89007982      -1.63088471      -1.20221825       1.86588149
C        3.53668538       2.01600145      19.16472905       0.41809593      -3.08402699      -0.16948848
C        6.29913323       2.89223516       2.23915528      -2.49756532       1.14693477      -0.13261206
C        4.94681449       3.90468457       2.59533589       4.03943514      -1.01813568      -0.10299108
C        3.38015324       7.00461556      19.19137895      -1.40678432       1.11064369      -2.88505907
C        4.24103107       6.80578700      20.28666080       1.20238340      -0.00030164       1.13163163
C        5.92098711       1.23022442      21.46135171       0.33705996       1.95074073       1.27772891
C        4.97507986       1.98242928      22.44410923       2.64238089      -0.01248960       1.91013800
C        1.79206903       6.54735654       2.78125447       0.43654758      -2.17678466      -0.67563928
C        4.45788774       4.17862146       1.22467919      -1.12015427      -1.34960718      -2.63876553
C        1.82649933       3.86381083       0.28949953       0.48195660       0.96411330      -1.14282302
C        4.36764182       6.38422288       0.08150411      -1.39275750      -1.20894124      -0.00022847
C        2.67761413       6.02239615      18.59183492      -2.42543630      -1.20755794      -1.87239586
C        6.92694039       1.86482881       3.21986281       0.51671537      -0.88505580       1.91566893
C        1.84412096       0.98680359       0.47341316       2.61021583      -1.70348310      -1.81819609
C        4.82397497       1.59610088      19.58295010      -2.70061722       5.36171395      -2.39225629
C        2.82730387       3.32967455      21.95287690       4.82329808       0.60438029       2.80272143
C        1.70389315       6.34416962      21.56441453      -1.31014328      -0.07281768      -0.93303000
C        4.29701229       3.26009885       0.07898104      -2.76083544       0.88760409       0.48257729
C        6.53973129       0.27549506       3.30751690       2.65600364       4.42595081       1.61100865
C        5.51490684       5.23007029       3.20992823      -2.29053177      -0.09513922      -0.03068107
C        7.26579351       3.63807184       1.36781825       1.49073910       4.03037041       1.04368521
C        7.23932720       1.23790236       1.03326393      -2.58868827      -2.77004233      -0.06582446
C        0.44414630       3.53281630       0.02824935       0.30921474      -1.02070767       1.38727245
C        6.87737250       5.54347330       3.06899686       1.13430137      -0.06592818       0.55335475
C        6.86127141       6.02520387      19.77319393      -0.07207870       0.34230353       0.50715203
C        5.21877920       0.49398517      20.36667810       2.82981506      -2.58134959      -2.08321155
C        2.66135496       0.78336826      18.98383408      -0.07331301       2.40033616       0.77715323
C        5.68245156       2.78963679      19.72620179      -0.58392919       0.88094228       2.03310792
C        5.19578302       0.15136835       3.17007727      -2.91689892      -2.18045389      -2.57681797
C        1.26686024       5.56491884       1.77063056       2.86218543       1.64791128       1.17555396
C        1.23608826       4.37489823      19.11172209      -0.42205427      -1.85008426      -0.06930427
C        3.63058961       5.38922196       1.21798856      -1.09228277       1.61102537      -0.42305370
C        4.56337662       6.29154562       3.30566965       1.40911207       3.26699014       0.09158534
C        2.13338361       7.47597338      22.25393298       1.18156520       0.83252305      -1.23944264
C        4.92659592       4.03590209      19.82937725      -0.08121790      -2.73446825      -1.22953082
C        0.65505632       2.06514027       3.65597061      -1.25115362       0.28453586      -0.50695843
