64
Lattice="7.527393 0.0 0.0 0.0 7.527393 0.0 0.0 0.0 22.527393" Properties=species:S:1:pos:R:3:force:R:3 energy=-434.39050416 config_type=Amorphous_Surfaces kpoints="5 5 1" kpoints_density="5.99123926 5.99123926 3.58602245" virial="-32.6129116 -5.26967524 6.03428293 -5.26967524 -20.9084427 5.60149346 6.03428293 5.60149346 14.67366819" cutoff=-1.0 nneightol=1.2 pbc="T T T"
C        5.34667714       0.63099877      19.46373513       1.99270587       0.34277461      -0.65742580
C        0.17430431       7.08040135      20.81301334       0.80290805       0.97287973       1.10171266
C        1.16830409       6.40255208      22.06202212      -2.33919950      -0.90773268      -0.35508089
C        4.85094562       7.14979638      18.49269186       2.22519044      -0.55338463       0.06017542
C        6.25929074       7.00880831      18.84267744      -2.06442757      -0.22887375      -0.53541648
C        6.75756652       1.99750664       1.11100597       0.35809701       1.12852375      -0.78487618
C        1.06694021       0.03936827       0.62907745       1.16442848       1.19984435       0.03165408
C        7.33706287       3.33536526       1.65637163      -1.35386223      -0.40875932      -0.50354941
C        5.94408868       6.82397318       0.08353157       0.53865571       0.91684083       2.35292405
C        3.99787370       5.57742184      19.84681345      -0.68224097      -2.80123796      -0.21363927
C        6.15677517       1.81739871      19.08261670      -1.49981579      -0.87353164       0.44891398
C        0.97123694       3.70755720       0.67845749       1.45330625       2.47516088       2.11192905
C        4.02616164       2.62048874      21.03671035      -1.42790636       0.39763132       0.46876921
C        3.23978242       7.09743584       2.29168916      -1.12145045      -0.56523909       3.69473966
C        3.37708960       3.64180543       0.60211216       2.33985685       1.57262710      -1.09807433
C        0.08687364       6.26502661       2.43385954      -1.74980837       0.50493418      -1.19137041
C        3.05962932       1.65982027      20.48992547      -1.77147259      -1.06552685      -1.49115427
C        6.98114514       5.04975159       3.07296168       1.33821223       3.23639391       2.84396168
C        0.11620037       1.20891437       0.11392103      -1.29650321      -2.92562557      -1.78597376
C        0.35919967       5.17279436       0.04602346      -0.11434432       0.74159911       0.70092854
C        0.80657521       0.93517320      20.07129892       1.22757633       0.70086413       0.29289604
C        0.25141493       4.90349435      19.75341488      -2.56222961      -2.25254907       2.00359528
C        2.35354480       3.64781981       1.47286348      -3.86940811       1.24789813      -0.56407142
C        2.87206174       3.50222498      21.75067102       1.11736069       2.40999862      -2.19010180
C        0.99987867       1.87383158      21.57092495      -0.12928221      -2.51873325       0.22037979
C        5.98416452       4.41681828       1.41395435      -1.85557169       1.06813496       1.34207139
C        5.43939957       4.92353980       2.78979235       0.02934429      -2.59639912       1.17499082
C        3.14852031       4.62363340       3.35432882      -2.39513185       1.22597866       0.95860797
C        2.36977386       1.31182136      21.76414240      -1.08885771       0.70866635      -1.20125744
C        6.06025894       3.20961263      19.27801931       1.38347196       2.67747817       0.27746873
C        5.32405732       3.76916891      20.52101327      -1.04792447      -0.75322595      -1.82091899
C        3.64599066       6.40712874      22.27459060      -1.38711122      -0.61106379      -0.76659922
C        3.55329081       7.35656634       0.91817148       1.83881274       1.49279851      -2.42397749
C        5.68172893       1.25325072       1.86979615      -0.66168963      -0.61330948      -0.75740270
C        4.75868236       1.79327342       2.61466440       1.63355556      -1.28012191       1.61259135
C        2.83229453       4.95233960      20.63283925      -2.44229770       0.15609524      -2.08185299
C        4.24159563       3.86721321       3.60312135       2.37432011      -1.77137392      -1.49081797
C        1.91187502       3.73506982       2.94924124       0.34044756      -0.38946035      -0.95534673
C        3.55444250       5.86996644       2.94462312       0.42536134       1.95683593      -1.32853422
C        2.53194402       6.01221912      21.58827104       0.31600980       0.67713677       2.63749662
C        6.20385149       3.53114522      21.59491662       2.53933322       0.81242225       0.97233936
C        2.19756969       1.23026958      19.50358609       1.59659289      -0.15202450       0.94724915
C        4.87455152       1.54301771      22.01827392       0.66253753       0.28915329      -1.44726406
C        2.54112744       2.08097038       3.03214204      -2.23592984      -0.63882011       1.37841457
C        0.97022074       7.30288098       2.13962926      -0.86955621       0.12450046      -0.32572708
C        3.89885837       2.43849896       3.42085221       1.23435237       1.18309484      -0.50133144
C        6.71047515       0.22899835      21.66146254       0.79788361      -0.40713282       2.60342556
C        5.28111355       5.47234696      20.56277906       0.45634982      -1.17543198      -1.57747848
C        7.42450859       3.64312272      19.03936410      -3.31681904      -0.65118503      -0.10723984
C        7.47580025       1.61479140      19.12314348       0.46124105       0.96683533       0.22329022
C        0.27614241       3.96450476       2.99208834       2.46842001      -2.59478728      -1.09482381
C        6.85975088       6.17037717      19.94057246      -0.57535257      -2.62053357      -2.25540131
C        6.70822446       5.72472540       1.01425082       1.75518906       0.87821766      -2.91801404
C        4.92259134       0.52203976       0.76728301       0.20291167      -1.18127901      -1.30346626
C        2.41371126       0.62496933       0.34989547       0.86293608      -0.04913702       1.61646039
C        5.79313434       2.60920518       0.07668325      -0.14705326      -2.49194403      -1.39714384
C        5.34722664       0.42279861      20.94218541      -0.09825616       1.87909555       1.98023476
C        1.58272471       5.01477933      19.65972345       5.83507701       1.36761482      -0.71401997
C        0.07647079       4.18524556      21.40800684      -1.03424918       1.65195892      -0.09300037
C        3.90342750       6.19704673      18.70886472      -0.54924201       1.17979800      -1.42789700
C        4.95100725       6.46162706      21.57428153       0.11687461      -0.03732133       2.65979886
C        2.13031997       0.71763154       2.68974820       0.76716319      -1.16620600       1.13231675
C        4.99188100       3.76365134       0.53198439      -0.02975974      -0.15850826       1.10307649
C        1.26609245       3.30463844      21.76921106      -0.93972977      -1.70332710       0.40783685
