64
Lattice="7.527393 0.0 0.0 0.0 7.527393 0.0 0.0 0.0 22.527393" Properties=species:S:1:pos:R:3:force:R:3 energy=-450.54631246 config_type=Amorphous_Surfaces kpoints="5 5 1" kpoints_density="5.99123926 5.99123926 3.58602245" virial="37.24783114 14.98560127 3.99031004 14.98560127 -95.04545962 -2.41144509 3.99031004 -2.41144509 -8.18761805" cutoff=-1.0 nneightol=1.2 pbc="T T T"
C        3.07862846       7.04556457      21.97414276      -2.08378397       1.11857139       0.91518652
C        4.54231498       7.31113100      21.87930243      -7.72122456       3.97718893      -1.05194467
C        2.06377781       0.55676362      22.40042861      -0.32439504      -3.08058467      -1.24330821
C        5.05676712       5.52569360       3.77318064      -2.21590927       1.94953833       2.34087137
C        5.20279855       2.07881754      19.55974688      -0.54261845       0.02413649       0.38394430
C        5.06087708       1.09519052      21.90187488      -3.44824987      -2.38173895      -0.04403168
C        0.98411631       3.18532926       2.33584285       0.92613895      -0.17513267      -0.70986412
C        3.64810585       0.33103969      18.91654476       0.31765032       0.90401969       1.43444497
C        3.10427429       4.28275541       3.65693929      -1.42447695      -0.55810210      -1.61492079
C        5.23177148       5.43152591      18.79836605      -3.55971255       1.66904764       2.53247904
C        5.97095395       2.94931538      18.72594049       2.46888537      -2.90247085      -0.92851206
C        1.48008118       5.60409892       2.38288005      -1.95845016      -1.54057563      -0.32988866
C        6.46654245       1.51406736      18.61798922      -1.71978605       3.13083129       1.14119396
C        1.27733085       1.31227300      18.46642492       2.50322832      -0.45066221       1.02971861
C        2.10797866       1.94303090       0.36235312       1.72448170      -0.99485717      -0.42574073
C        0.31749038       6.57082695      18.20321486       0.48043189      -0.29418048       1.13442800
C        5.92598530       4.79181795       3.11459230       6.39491749       1.76619463       0.12228488
C        6.15726445       1.23549360       0.08533376       4.84100850       2.60483819       0.37109560
C        2.92528041       2.85423688      19.03623280       3.28226312      -0.40830345       1.87239342
C        5.02865231       6.10613840      22.11381259       6.48203245      -3.37030088      -1.17106601
C        5.48592638       6.84700700       3.92945316      -0.15312360       7.50098051      -2.05935700
C        6.17124282       4.30339552      18.45232277      -1.25995987       4.80452360       0.27241713
C        7.42852822       0.98404103       2.79218025      -4.32925578       2.30669317       3.03013031
C        6.61325134       7.35505334       3.16753167       0.74628789      -5.07750624       1.85639043
C        4.20384575       3.46771941      21.77236490       1.64324744      -0.20569248       2.23999868
C        2.82739419       5.64006481      22.07508800       2.62747643      -0.32682999      -1.40931791
C        7.37375891       3.51225899      22.49448048      -1.51328050      -1.69573975       0.13672960
C        2.32530203       0.20658177      18.79280179      -5.15239828      -1.60577292      -3.08739683
C        1.70819129       6.48154454      18.52017528      -0.25905297      -1.71565691       0.15627473
C        0.33561634       5.40137118       1.44801577      -2.19812640      -1.11122349       5.27160405
C        3.21291715       4.31278218      19.28277259      -0.98758263       0.30410323      -1.37913897
C        0.29150582       5.73618962       0.07911620      -2.03283472       4.83802734      -3.72013141
C        6.37129082       6.40809977      22.24471927       5.05535973      -1.32071678       2.78152841
C        1.95642213       4.29690691       2.85397289      -1.41989082       0.93262770       0.59294118
C        7.32227907       3.93279938       1.43166088       3.40429822      -0.62317107      -0.98467441
C        3.99183673       5.27012355      20.00799695       2.72807605      -0.47737029      -2.26792154
C        1.96208273       6.90505826       2.64408517       0.54174981       2.74488393       0.15897439
C        3.93281444       3.01134110       3.28562027       0.46196216      -4.07756661       2.07262279
C        1.03320996       4.14239211      18.56982565       1.51259796       1.57640263      -2.44259697
C        6.53669023       2.50708857      22.00827176       0.21631230       1.91875154       1.05768191
C        4.20628463       4.95245251      21.43508477      -0.15856660       3.08385637       2.30732917
C        7.26261695       2.54926455       2.95611209       1.01430106      -3.20818541       0.66346723
C        0.82915739       7.39613032      22.52277488       0.75577940      -1.61390497       0.06526462
C        0.76585202       4.45655539      21.91169682      -2.90857339       1.65433603       0.97103872
C        4.23990196       0.28068143       3.71562315       0.87715900       2.06440489       0.55872003
C        3.17427905       6.87759080       3.34941785      -0.86153086      -0.70120325       1.24431832
C        4.72236269       3.13882502       2.06945643       1.43351433       1.23037622      -3.56174774
C        3.62623125       5.61301136       3.93294491       0.64860829      -3.75591209      -2.33745894
C        4.34675331       6.57787259      19.24231339       3.26617805      -3.76969806      -0.88143086
C        3.76230393       1.71124742      19.17482132       5.50352419       1.64661844       0.67737325
C        1.62499855       2.03411988       1.62821238      -0.84593792      -1.53445105       2.02743049
C        5.15585773       2.44096042      21.25432497       0.94751291      -1.12550465      -3.42336118
C        1.64645914       2.69062146      18.66248082      -4.44215685       0.08135975      -1.24229856
C        7.03356591       0.17731527       0.12815834      -3.26277170      -2.18735654      -1.04354322
C        0.06134073       0.64773217      18.25829433      -3.27063379      -1.43327013       0.79157504
C        4.17332217       1.66077624       3.72427367      -1.56068745       1.61568803      -0.62698250
C        7.38416177       5.03823468      18.23029279       1.99211875      -1.70567336       0.82090977
C        2.20318513       5.01189633      18.61735845      -3.83789099       0.95449364       0.06138990
C        4.25805804       3.30088227       0.77534781      -1.96781365       0.60272066       0.87079630
C        2.04070635       4.47886658      22.26452085       3.22024219      -2.01717871      -0.88696107
C        1.12349351       0.82773472       2.32219125       5.05187790      -3.14329512      -1.27730927
C        2.88052253       3.11436853      22.44904273       0.42922019       2.97036162       0.88770508
C        7.10639344       5.83503934       2.91452652      -1.43726087       1.64956259      -3.71023776
C        6.31119964       3.55718247       2.46404625      -4.64050585      -1.03534956      -0.99150914
